<?xml version="1.0" encoding="UTF-8"?>

<!-- generated on 2026-05-12T15:18:33.968502+01:00 by Eclipse SUMO sumo 1.26.0
<sumoConfiguration xmlns:xsi="http://www.w3.org/2001/XMLSchema-instance" xsi:noNamespaceSchemaLocation="http://sumo.dlr.de/xsd/sumoConfiguration.xsd">

    <input>
        <net-file value="C:\Users\Prime\Desktop\SIR2_M~1\MY_SIM~1\2026-0~1\osm.net.xml.gz"/>
        <route-files value="C:\Users\Prime\Desktop\SIR2_M~1\MY_SIM~1\2026-0~1\osm_pt.rou.xml,C:\Users\Prime\Desktop\SIR2_M~1\MY_SIM~1\2026-0~1\osm.bicycle.trips.xml,C:\Users\Prime\Desktop\SIR2_M~1\MY_SIM~1\2026-0~1\osm.bus.trips.xml,C:\Users\Prime\Desktop\SIR2_M~1\MY_SIM~1\2026-0~1\osm.motorcycle.trips.xml,C:\Users\Prime\Desktop\SIR2_M~1\MY_SIM~1\2026-0~1\osm.passenger.trips.xml,C:\Users\Prime\Desktop\SIR2_M~1\MY_SIM~1\2026-0~1\osm.pedestrian.rou.xml,C:\Users\Prime\Desktop\SIR2_M~1\MY_SIM~1\2026-0~1\osm.truck.trips.xml"/>
        <additional-files value="C:\Users\Prime\Desktop\SIR2_M~1\MY_SIM~1\2026-0~1\osm.poly.xml.gz,C:\Users\Prime\Desktop\SIR2_M~1\MY_SIM~1\2026-0~1\osm_stops.add.xml,C:\Users\Prime\Desktop\SIR2_M~1\MY_SIM~1\2026-0~1\output.add.xml"/>
    </input>

    <output>
        <emission-output value="C:\Users\Prime\Desktop\SIR2_M~1\SUMO_O~1\RUN_EM~1.XML"/>
        <fcd-output value="C:\Users\Prime\Desktop\SIR2_M~1\SUMO_O~1\run_fcd.xml"/>
        <fcd-output.geo value="true"/>
        <tripinfo-output value="C:\Users\Prime\Desktop\SIR2_M~1\SUMO_O~1\RUN_TR~1.XML"/>
        <stop-output value="C:\Users\Prime\Desktop\SIR2_M~1\SUMO_O~1\run_stopinfos.xml"/>
        <statistic-output value="C:\Users\Prime\Desktop\SIR2_M~1\SUMO_O~1\run_stats.xml"/>
    </output>

    <processing>
        <ignore-route-errors value="true"/>
        <tls.actuated.jam-threshold value="30"/>
    </processing>

    <routing>
        <device.rerouting.adaptation-steps value="18"/>
        <device.rerouting.adaptation-interval value="10"/>
    </routing>

    <report>
        <verbose value="true"/>
        <duration-log.statistics value="true"/>
        <no-step-log value="true"/>
    </report>

    <gui_only>
        <gui-settings-file value="C:\Users\Prime\Desktop\SIR2_M~1\MY_SIM~1\2026-0~1\osm.view.xml"/>
    </gui_only>

</sumoConfiguration>
-->

<meandata xmlns:xsi="http://www.w3.org/2001/XMLSchema-instance" xsi:noNamespaceSchemaLocation="http://sumo.dlr.de/xsd/meandata_file.xsd">
    <interval begin="0.00" end="3600.00" id="wizard_example">
        <edge id="-1004737848" sampledSeconds="10.78" traveltime="10.75" overlapTraveltime="11.12" density="0.05" overlapDensity="0.05" laneDensity="0.05" occupancy="0.01" waitingTime="0.00" timeLoss="1.03" speed="5.06" speedRelative="0.91" departed="1" arrived="0" entered="0" left="1" laneChangedFrom="0" laneChangedTo="0" flow="0.97"/>
        <edge id="-1004737860" sampledSeconds="300.64" traveltime="2.30" overlapTraveltime="3.67" density="3.14" overlapDensity="4.90" laneDensity="1.57" occupancy="1.07" waitingTime="73.00" timeLoss="145.90" speed="6.27" speedRelative="0.45" departed="1" arrived="2" entered="83" left="82" laneChangedFrom="3" laneChangedTo="3" flow="83.90"/>
        <edge id="-1004737861#2" sampledSeconds="1625.40" traveltime="16.59" overlapTraveltime="17.92" density="13.02" overlapDensity="14.20" laneDensity="3.26" occupancy="1.68" waitingTime="940.00" timeLoss="1349.00" speed="2.06" speedRelative="0.15" departed="1" arrived="1" entered="89" left="89" laneChangedFrom="4" laneChangedTo="4" flow="89.84"/>
        <edge id="-1004744416#1" sampledSeconds="565.11" traveltime="5.26" overlapTraveltime="5.88" density="3.25" overlapDensity="3.63" laneDensity="1.62" occupancy="0.78" waitingTime="0.00" timeLoss="156.46" speed="8.22" speedRelative="0.59" departed="0" arrived="0" entered="96" left="96" laneChangedFrom="18" laneChangedTo="18" flow="96.00"/>
        <edge id="-1004744417" sampledSeconds="794.25" traveltime="7.38" overlapTraveltime="8.19" density="3.87" overlapDensity="4.30" laneDensity="1.94" occupancy="0.98" waitingTime="12.00" timeLoss="121.94" speed="6.88" speedRelative="0.83" departed="1" arrived="1" entered="96" left="96" laneChangedFrom="26" laneChangedTo="26" flow="96.90"/>
        <edge id="-1004744418#1" sampledSeconds="10.70" traveltime="10.44" overlapTraveltime="11.13" density="0.07" overlapDensity="0.07" laneDensity="0.07" occupancy="0.01" waitingTime="0.00" timeLoss="3.20" speed="3.94" speedRelative="0.71" departed="1" arrived="0" entered="0" left="1" laneChangedFrom="0" laneChangedTo="0" flow="0.96"/>
        <edge id="-1004744419" sampledSeconds="284.71" traveltime="2.33" overlapTraveltime="3.04" density="3.74" overlapDensity="4.88" laneDensity="1.87" occupancy="0.92" waitingTime="0.00" timeLoss="32.21" speed="6.99" speedRelative="0.84" departed="1" arrived="0" entered="93" left="94" laneChangedFrom="5" laneChangedTo="5" flow="93.68"/>
        <edge id="-1004744421" sampledSeconds="1110.26" traveltime="11.15" overlapTraveltime="11.79" density="3.77" overlapDensity="3.99" laneDensity="1.88" occupancy="0.88" waitingTime="0.00" timeLoss="107.89" speed="6.96" speedRelative="0.84" departed="1" arrived="1" entered="93" left="93" laneChangedFrom="26" laneChangedTo="26" flow="93.97"/>
        <edge id="-1013138963#0" sampledSeconds="0.00" departed="0" arrived="0" entered="0" left="0" laneChangedFrom="0" laneChangedTo="0"/>
        <edge id="-1021961409" sampledSeconds="0.00" departed="0" arrived="0" entered="0" left="0" laneChangedFrom="0" laneChangedTo="0"/>
        <edge id="-1022107860#0" sampledSeconds="0.00" departed="0" arrived="0" entered="0" left="0" laneChangedFrom="0" laneChangedTo="0"/>
        <edge id="-1022107860#1" sampledSeconds="0.00" departed="0" arrived="0" entered="0" left="0" laneChangedFrom="0" laneChangedTo="0"/>
        <edge id="-1022107860#3" sampledSeconds="0.00" departed="0" arrived="0" entered="0" left="0" laneChangedFrom="0" laneChangedTo="0"/>
        <edge id="-1022107860#4" sampledSeconds="0.00" departed="0" arrived="0" entered="0" left="0" laneChangedFrom="0" laneChangedTo="0"/>
        <edge id="-1022107861" sampledSeconds="2.57" traveltime="2.22" overlapTraveltime="2.57" density="0.06" overlapDensity="0.07" laneDensity="0.06" occupancy="0.01" waitingTime="0.00" timeLoss="0.22" speed="4.46" speedRelative="0.80" departed="0" arrived="1" entered="1" left="0" laneChangedFrom="0" laneChangedTo="0" flow="1.00"/>
        <edge id="-1022107862" sampledSeconds="0.00" departed="0" arrived="0" entered="0" left="0" laneChangedFrom="0" laneChangedTo="0"/>
        <edge id="-1022114281" sampledSeconds="0.00" departed="0" arrived="0" entered="0" left="0" laneChangedFrom="0" laneChangedTo="0"/>
        <edge id="-1022114283" sampledSeconds="6.24" traveltime="5.88" overlapTraveltime="6.24" density="0.06" overlapDensity="0.06" laneDensity="0.06" occupancy="0.01" waitingTime="0.00" timeLoss="0.39" speed="4.82" speedRelative="0.87" departed="0" arrived="0" entered="1" left="1" laneChangedFrom="0" laneChangedTo="0" flow="1.00"/>
        <edge id="-1022114285" sampledSeconds="0.00" departed="0" arrived="0" entered="0" left="0" laneChangedFrom="0" laneChangedTo="0"/>
        <edge id="-1022114287" sampledSeconds="5.32" traveltime="5.08" overlapTraveltime="5.32" density="0.04" overlapDensity="0.04" laneDensity="0.04" occupancy="0.01" waitingTime="0.00" timeLoss="0.25" speed="6.57" speedRelative="1.18" departed="0" arrived="1" entered="1" left="0" laneChangedFrom="0" laneChangedTo="0" flow="1.00"/>
        <edge id="-1024004267" sampledSeconds="0.00" departed="0" arrived="0" entered="0" left="0" laneChangedFrom="0" laneChangedTo="0"/>
        <edge id="-1024017994" sampledSeconds="12.00" traveltime="11.69" overlapTraveltime="12.00" density="0.05" overlapDensity="0.05" laneDensity="0.05" occupancy="0.01" waitingTime="0.00" timeLoss="0.50" speed="5.68" speedRelative="1.02" departed="0" arrived="0" entered="1" left="1" laneChangedFrom="0" laneChangedTo="0" flow="1.00"/>
        <edge id="-1024481473#0" sampledSeconds="0.74" traveltime="0.08" overlapTraveltime="0.74" density="0.11" overlapDensity="1.03" laneDensity="0.11" occupancy="0.02" waitingTime="0.00" timeLoss="0.42" speed="2.42" speedRelative="0.43" departed="0" arrived="1" entered="1" left="0" laneChangedFrom="0" laneChangedTo="0" flow="1.00"/>
        <edge id="-1024481473#1" sampledSeconds="4.00" traveltime="3.12" overlapTraveltime="4.00" density="0.07" overlapDensity="0.09" laneDensity="0.07" occupancy="0.01" waitingTime="0.00" timeLoss="1.43" speed="3.55" speedRelative="0.64" departed="0" arrived="0" entered="1" left="1" laneChangedFrom="0" laneChangedTo="0" flow="1.00"/>
        <edge id="-1026057348" sampledSeconds="0.00" departed="0" arrived="0" entered="0" left="0" laneChangedFrom="0" laneChangedTo="0"/>
        <edge id="-1026070311" sampledSeconds="0.00" departed="0" arrived="0" entered="0" left="0" laneChangedFrom="0" laneChangedTo="0"/>
        <edge id="-1026070315#0" sampledSeconds="0.00" departed="0" arrived="0" entered="0" left="0" laneChangedFrom="0" laneChangedTo="0"/>
        <edge id="-1026070315#1" sampledSeconds="0.00" departed="0" arrived="0" entered="0" left="0" laneChangedFrom="0" laneChangedTo="0"/>
        <edge id="-1026070315#2" sampledSeconds="0.00" departed="0" arrived="0" entered="0" left="0" laneChangedFrom="0" laneChangedTo="0"/>
        <edge id="-1026070315#3" sampledSeconds="0.00" departed="0" arrived="0" entered="0" left="0" laneChangedFrom="0" laneChangedTo="0"/>
        <edge id="-1026072355" sampledSeconds="11.67" traveltime="11.68" overlapTraveltime="12.02" density="0.06" overlapDensity="0.06" laneDensity="0.06" occupancy="0.01" waitingTime="0.00" timeLoss="0.93" speed="4.79" speedRelative="0.86" departed="1" arrived="0" entered="0" left="1" laneChangedFrom="0" laneChangedTo="0" flow="0.97"/>
        <edge id="-1026368157#1" sampledSeconds="0.00" departed="0" arrived="0" entered="0" left="0" laneChangedFrom="0" laneChangedTo="0"/>
        <edge id="-1026368162#0" sampledSeconds="45.91" traveltime="22.03" overlapTraveltime="22.96" density="0.15" overlapDensity="0.15" laneDensity="0.15" occupancy="0.02" waitingTime="12.00" timeLoss="17.04" speed="3.67" speedRelative="0.66" departed="0" arrived="0" entered="2" left="2" laneChangedFrom="0" laneChangedTo="0" flow="2.00"/>
        <edge id="-1026368162#1" sampledSeconds="0.00" departed="0" arrived="0" entered="0" left="0" laneChangedFrom="0" laneChangedTo="0"/>
        <edge id="-1026368162#2" sampledSeconds="6.96" traveltime="7.13" overlapTraveltime="7.55" density="0.09" overlapDensity="0.10" laneDensity="0.09" occupancy="0.01" waitingTime="0.00" timeLoss="3.32" speed="2.87" speedRelative="0.52" departed="1" arrived="0" entered="0" left="1" laneChangedFrom="0" laneChangedTo="0" flow="0.92"/>
        <edge id="-1026368162#3" sampledSeconds="0.00" departed="0" arrived="0" entered="0" left="0" laneChangedFrom="0" laneChangedTo="0"/>
        <edge id="-1026541486" sampledSeconds="7.48" traveltime="7.44" overlapTraveltime="7.85" density="0.06" overlapDensity="0.06" laneDensity="0.06" occupancy="0.01" waitingTime="0.00" timeLoss="0.37" speed="4.68" speedRelative="0.84" departed="1" arrived="0" entered="0" left="1" laneChangedFrom="0" laneChangedTo="0" flow="0.95"/>
        <edge id="-1026541490" sampledSeconds="0.00" departed="0" arrived="0" entered="0" left="0" laneChangedFrom="0" laneChangedTo="0"/>
        <edge id="-1026606157" sampledSeconds="113.30" traveltime="3.36" overlapTraveltime="5.78" density="0.87" overlapDensity="1.50" laneDensity="0.87" occupancy="0.60" waitingTime="22.00" timeLoss="65.50" speed="4.63" speedRelative="0.33" departed="1" arrived="0" entered="19" left="20" laneChangedFrom="0" laneChangedTo="0" flow="19.66"/>
        <edge id="-1028732094#1" sampledSeconds="282.05" traveltime="2.71" overlapTraveltime="32.36" density="0.44" overlapDensity="4.14" laneDensity="0.44" occupancy="4.34" waitingTime="240.00" timeLoss="256.24" speed="0.93" speedRelative="0.07" departed="0" arrived="2" entered="11" left="9" laneChangedFrom="0" laneChangedTo="0" flow="11.00"/>
        <edge id="-1028792575" sampledSeconds="4.05" traveltime="3.78" overlapTraveltime="4.05" density="0.05" overlapDensity="0.05" laneDensity="0.05" occupancy="0.01" waitingTime="0.00" timeLoss="0.36" speed="5.74" speedRelative="1.03" departed="0" arrived="0" entered="1" left="1" laneChangedFrom="0" laneChangedTo="0" flow="1.00"/>
        <edge id="-1029032488" sampledSeconds="0.00" departed="0" arrived="0" entered="0" left="0" laneChangedFrom="0" laneChangedTo="0"/>
        <edge id="-1029697147" sampledSeconds="0.00" departed="0" arrived="0" entered="0" left="0" laneChangedFrom="0" laneChangedTo="0"/>
        <edge id="-1029701446" sampledSeconds="0.00" departed="0" arrived="0" entered="0" left="0" laneChangedFrom="0" laneChangedTo="0"/>
        <edge id="-1030141989" sampledSeconds="0.00" departed="0" arrived="0" entered="0" left="0" laneChangedFrom="0" laneChangedTo="0"/>
        <edge id="-1030141990" sampledSeconds="0.00" departed="0" arrived="0" entered="0" left="0" laneChangedFrom="0" laneChangedTo="0"/>
        <edge id="-1030215624" sampledSeconds="0.00" departed="0" arrived="0" entered="0" left="0" laneChangedFrom="0" laneChangedTo="0"/>
        <edge id="-1030215625#0" sampledSeconds="0.00" departed="0" arrived="0" entered="0" left="0" laneChangedFrom="0" laneChangedTo="0"/>
        <edge id="-1030215625#1" sampledSeconds="0.00" departed="0" arrived="0" entered="0" left="0" laneChangedFrom="0" laneChangedTo="0"/>
        <edge id="-1030215626" sampledSeconds="0.00" departed="0" arrived="0" entered="0" left="0" laneChangedFrom="0" laneChangedTo="0"/>
        <edge id="-1030215629" sampledSeconds="0.00" departed="0" arrived="0" entered="0" left="0" laneChangedFrom="0" laneChangedTo="0"/>
        <edge id="-1030215631#0" sampledSeconds="17.61" traveltime="16.15" overlapTraveltime="17.61" density="0.69" overlapDensity="0.75" laneDensity="0.69" occupancy="0.11" waitingTime="13.00" timeLoss="15.98" speed="0.46" speedRelative="0.08" departed="0" arrived="0" entered="1" left="1" laneChangedFrom="0" laneChangedTo="0" flow="1.00"/>
        <edge id="-1030215631#1" sampledSeconds="0.00" departed="0" arrived="0" entered="0" left="0" laneChangedFrom="0" laneChangedTo="0"/>
        <edge id="-1030215632" sampledSeconds="0.00" departed="0" arrived="0" entered="0" left="0" laneChangedFrom="0" laneChangedTo="0"/>
        <edge id="-1030215633" sampledSeconds="0.00" departed="0" arrived="0" entered="0" left="0" laneChangedFrom="0" laneChangedTo="0"/>
        <edge id="-1030215635" sampledSeconds="0.00" departed="0" arrived="0" entered="0" left="0" laneChangedFrom="0" laneChangedTo="0"/>
        <edge id="-1030215636" sampledSeconds="0.00" departed="0" arrived="0" entered="0" left="0" laneChangedFrom="0" laneChangedTo="0"/>
        <edge id="-1030225874" sampledSeconds="0.00" departed="0" arrived="0" entered="0" left="0" laneChangedFrom="0" laneChangedTo="0"/>
        <edge id="-1031131575#0" sampledSeconds="6.39" traveltime="6.07" overlapTraveltime="6.39" density="0.05" overlapDensity="0.05" laneDensity="0.05" occupancy="0.01" waitingTime="0.00" timeLoss="0.36" speed="5.30" speedRelative="0.95" departed="0" arrived="0" entered="1" left="1" laneChangedFrom="0" laneChangedTo="0" flow="1.00"/>
        <edge id="-1031131575#1" sampledSeconds="4.63" traveltime="4.32" overlapTraveltime="4.63" density="0.05" overlapDensity="0.05" laneDensity="0.05" occupancy="0.01" waitingTime="0.00" timeLoss="0.17" speed="5.42" speedRelative="0.97" departed="0" arrived="0" entered="1" left="1" laneChangedFrom="0" laneChangedTo="0" flow="1.00"/>
        <edge id="-1031131575#2" sampledSeconds="0.00" departed="0" arrived="0" entered="0" left="0" laneChangedFrom="0" laneChangedTo="0"/>
        <edge id="-1031131575#3" sampledSeconds="0.00" departed="0" arrived="0" entered="0" left="0" laneChangedFrom="0" laneChangedTo="0"/>
        <edge id="-1031131578" sampledSeconds="0.00" departed="0" arrived="0" entered="0" left="0" laneChangedFrom="0" laneChangedTo="0"/>
        <edge id="-1031131581" sampledSeconds="0.00" departed="0" arrived="0" entered="0" left="0" laneChangedFrom="0" laneChangedTo="0"/>
        <edge id="-1031131582" sampledSeconds="0.00" departed="0" arrived="0" entered="0" left="0" laneChangedFrom="0" laneChangedTo="0"/>
        <edge id="-1031131585" sampledSeconds="4.09" traveltime="3.79" overlapTraveltime="4.09" density="0.05" overlapDensity="0.06" laneDensity="0.05" occupancy="0.01" waitingTime="0.00" timeLoss="0.20" speed="5.34" speedRelative="0.96" departed="0" arrived="0" entered="1" left="1" laneChangedFrom="0" laneChangedTo="0" flow="1.00"/>
        <edge id="-1033645484" sampledSeconds="348.10" traveltime="3.12" overlapTraveltime="3.66" density="3.12" overlapDensity="3.66" laneDensity="3.12" occupancy="1.51" waitingTime="0.00" timeLoss="103.88" speed="8.61" speedRelative="0.62" departed="0" arrived="0" entered="95" left="95" laneChangedFrom="0" laneChangedTo="0" flow="95.00"/>
        <edge id="-1033645486#0" sampledSeconds="755.05" traveltime="7.43" overlapTraveltime="7.91" density="2.99" overlapDensity="3.19" laneDensity="2.99" occupancy="1.40" waitingTime="0.00" timeLoss="201.46" speed="8.91" speedRelative="0.64" departed="0" arrived="1" entered="95" left="94" laneChangedFrom="0" laneChangedTo="0" flow="95.00"/>
        <edge id="-103426225#0" sampledSeconds="107.68" traveltime="4.55" overlapTraveltime="5.10" density="0.69" overlapDensity="0.78" laneDensity="0.69" occupancy="0.36" waitingTime="0.00" timeLoss="22.14" speed="8.57" speedRelative="0.62" departed="0" arrived="2" entered="21" left="19" laneChangedFrom="0" laneChangedTo="0" flow="21.00"/>
        <edge id="-103426225#1" sampledSeconds="141.83" traveltime="6.57" overlapTraveltime="7.06" density="0.67" overlapDensity="0.73" laneDensity="0.67" occupancy="0.31" waitingTime="0.00" timeLoss="29.24" speed="8.35" speedRelative="0.60" departed="2" arrived="0" entered="18" left="20" laneChangedFrom="0" laneChangedTo="0" flow="19.81"/>
        <edge id="-103426225#2" sampledSeconds="49.39" traveltime="1.95" overlapTraveltime="2.56" density="0.64" overlapDensity="0.85" laneDensity="0.64" occupancy="0.32" waitingTime="0.00" timeLoss="10.03" speed="8.41" speedRelative="0.61" departed="0" arrived="1" entered="19" left="18" laneChangedFrom="0" laneChangedTo="0" flow="19.00"/>
        <edge id="-103426225#5" sampledSeconds="136.74" traveltime="6.12" overlapTraveltime="6.80" density="0.70" overlapDensity="0.79" laneDensity="0.70" occupancy="0.35" waitingTime="2.00" timeLoss="36.67" speed="7.85" speedRelative="0.57" departed="0" arrived="1" entered="20" left="19" laneChangedFrom="0" laneChangedTo="0" flow="20.00"/>
        <edge id="-103426225#6" sampledSeconds="57.57" traveltime="1.93" overlapTraveltime="2.95" density="3.35" overlapDensity="5.00" laneDensity="3.35" occupancy="1.04" waitingTime="22.00" timeLoss="42.67" speed="3.07" speedRelative="0.22" departed="0" arrived="0" entered="20" left="20" laneChangedFrom="0" laneChangedTo="0" flow="20.00"/>
        <edge id="-1057103251" sampledSeconds="3.69" traveltime="3.40" overlapTraveltime="3.69" density="0.05" overlapDensity="0.05" laneDensity="0.05" occupancy="0.01" waitingTime="0.00" timeLoss="0.09" speed="5.49" speedRelative="0.99" departed="0" arrived="0" entered="1" left="1" laneChangedFrom="0" laneChangedTo="0" flow="1.00"/>
        <edge id="-1057888578" sampledSeconds="381.54" traveltime="8.03" overlapTraveltime="8.96" density="2.11" overlapDensity="2.34" laneDensity="2.11" occupancy="1.04" waitingTime="8.00" timeLoss="88.82" speed="5.61" speedRelative="0.67" departed="1" arrived="1" entered="42" left="42" laneChangedFrom="0" laneChangedTo="0" flow="42.84"/>
        <edge id="-1059602927" sampledSeconds="0.00" departed="0" arrived="0" entered="0" left="0" laneChangedFrom="0" laneChangedTo="0"/>
        <edge id="-1062204371" sampledSeconds="360.21" traveltime="24.71" overlapTraveltime="26.17" density="4.10" overlapDensity="4.30" laneDensity="4.10" occupancy="1.89" waitingTime="285.00" timeLoss="328.79" speed="1.06" speedRelative="0.08" departed="1" arrived="0" entered="13" left="14" laneChangedFrom="0" laneChangedTo="0" flow="13.90"/>
        <edge id="-1066053872#0" sampledSeconds="10.77" traveltime="9.09" overlapTraveltime="10.77" density="0.06" overlapDensity="0.07" laneDensity="0.06" occupancy="0.01" waitingTime="0.00" timeLoss="2.57" speed="4.23" speedRelative="0.76" departed="0" arrived="0" entered="1" left="1" laneChangedFrom="0" laneChangedTo="0" flow="1.00"/>
        <edge id="-1066053873#0" sampledSeconds="0.00" departed="0" arrived="0" entered="0" left="0" laneChangedFrom="0" laneChangedTo="0"/>
        <edge id="-1066053875#0" sampledSeconds="18.69" traveltime="9.01" overlapTraveltime="9.34" density="0.11" overlapDensity="0.11" laneDensity="0.11" occupancy="0.02" waitingTime="0.00" timeLoss="1.54" speed="5.11" speedRelative="0.92" departed="0" arrived="0" entered="2" left="2" laneChangedFrom="0" laneChangedTo="0" flow="2.00"/>
        <edge id="-1066890896#1" sampledSeconds="0.00" departed="0" arrived="0" entered="0" left="0" laneChangedFrom="0" laneChangedTo="0"/>
        <edge id="-1067733397" sampledSeconds="1.31" overlapTraveltime="1.48" density="0.00" overlapDensity="1.82" laneDensity="0.00" occupancy="0.04" waitingTime="0.00" timeLoss="1.06" speed="1.22" speedRelative="0.22" departed="1" arrived="0" entered="0" left="1" laneChangedFrom="0" laneChangedTo="0" flow="0.00"/>
        <edge id="-1067733401" sampledSeconds="0.00" departed="0" arrived="0" entered="0" left="0" laneChangedFrom="0" laneChangedTo="0"/>
        <edge id="-1067735751" sampledSeconds="81.39" traveltime="26.83" overlapTraveltime="27.38" density="0.20" overlapDensity="0.20" laneDensity="0.20" occupancy="0.04" waitingTime="0.00" timeLoss="20.15" speed="4.13" speedRelative="0.74" departed="1" arrived="2" entered="2" left="1" laneChangedFrom="0" laneChangedTo="0" flow="2.98"/>
        <edge id="-1068024437#0" sampledSeconds="52.04" traveltime="7.12" overlapTraveltime="7.56" density="0.19" overlapDensity="0.20" laneDensity="0.19" occupancy="0.09" waitingTime="0.00" timeLoss="5.99" speed="10.30" speedRelative="0.74" departed="0" arrived="7" entered="7" left="0" laneChangedFrom="0" laneChangedTo="0" flow="7.00"/>
        <edge id="-1068024437#1" sampledSeconds="14.75" traveltime="0.85" overlapTraveltime="1.57" density="0.52" overlapDensity="0.89" laneDensity="0.52" occupancy="0.19" waitingTime="0.00" timeLoss="5.28" speed="6.05" speedRelative="0.44" departed="0" arrived="0" entered="10" left="10" laneChangedFrom="0" laneChangedTo="0" flow="10.00"/>
        <edge id="-1068212948" sampledSeconds="0.00" departed="0" arrived="0" entered="0" left="0" laneChangedFrom="0" laneChangedTo="0"/>
        <edge id="-1068229845" sampledSeconds="13.87" traveltime="13.54" overlapTraveltime="13.87" density="0.05" overlapDensity="0.06" laneDensity="0.05" occupancy="0.01" waitingTime="0.00" timeLoss="0.92" speed="5.05" speedRelative="0.91" departed="0" arrived="1" entered="1" left="0" laneChangedFrom="0" laneChangedTo="0" flow="1.00"/>
        <edge id="-1068229847" sampledSeconds="0.00" departed="0" arrived="0" entered="0" left="0" laneChangedFrom="0" laneChangedTo="0"/>
        <edge id="-1068837568" sampledSeconds="0.00" departed="0" arrived="0" entered="0" left="0" laneChangedFrom="0" laneChangedTo="0"/>
        <edge id="-1069245844" sampledSeconds="0.00" departed="0" arrived="0" entered="0" left="0" laneChangedFrom="0" laneChangedTo="0"/>
        <edge id="-1069288948#0" sampledSeconds="0.00" departed="0" arrived="0" entered="0" left="0" laneChangedFrom="0" laneChangedTo="0"/>
        <edge id="-1069288952#0" sampledSeconds="5.52" traveltime="5.17" overlapTraveltime="5.52" density="0.06" overlapDensity="0.07" laneDensity="0.06" occupancy="0.01" waitingTime="0.00" timeLoss="0.34" speed="4.43" speedRelative="0.80" departed="0" arrived="0" entered="1" left="1" laneChangedFrom="0" laneChangedTo="0" flow="1.00"/>
        <edge id="-1069288952#1" sampledSeconds="1.46" overlapTraveltime="1.64" density="0.00" overlapDensity="2.02" laneDensity="0.00" occupancy="0.04" waitingTime="0.00" timeLoss="1.12" speed="1.10" speedRelative="0.20" departed="1" arrived="0" entered="0" left="1" laneChangedFrom="0" laneChangedTo="0" flow="0.00"/>
        <edge id="-1069288955" sampledSeconds="0.00" departed="0" arrived="0" entered="0" left="0" laneChangedFrom="0" laneChangedTo="0"/>
        <edge id="-1069423463#1" sampledSeconds="0.00" departed="0" arrived="0" entered="0" left="0" laneChangedFrom="0" laneChangedTo="0"/>
        <edge id="-1071133038" sampledSeconds="0.00" departed="0" arrived="0" entered="0" left="0" laneChangedFrom="0" laneChangedTo="0"/>
        <edge id="-1071262611" sampledSeconds="0.00" departed="0" arrived="0" entered="0" left="0" laneChangedFrom="0" laneChangedTo="0"/>
        <edge id="-1071262612#0" sampledSeconds="0.00" departed="0" arrived="0" entered="0" left="0" laneChangedFrom="0" laneChangedTo="0"/>
        <edge id="-1071262612#1" sampledSeconds="0.00" departed="0" arrived="0" entered="0" left="0" laneChangedFrom="0" laneChangedTo="0"/>
        <edge id="-1071262612#2" sampledSeconds="0.00" departed="0" arrived="0" entered="0" left="0" laneChangedFrom="0" laneChangedTo="0"/>
        <edge id="-1071262614" sampledSeconds="0.00" departed="0" arrived="0" entered="0" left="0" laneChangedFrom="0" laneChangedTo="0"/>
        <edge id="-1071262615#1" sampledSeconds="5.60" traveltime="5.63" overlapTraveltime="5.94" density="0.05" overlapDensity="0.06" laneDensity="0.05" occupancy="0.01" waitingTime="0.00" timeLoss="0.44" speed="5.02" speedRelative="0.90" departed="1" arrived="0" entered="0" left="1" laneChangedFrom="0" laneChangedTo="0" flow="0.94"/>
        <edge id="-1071851919#1" sampledSeconds="47.19" traveltime="15.32" overlapTraveltime="16.31" density="0.85" overlapDensity="0.91" laneDensity="0.85" occupancy="0.14" waitingTime="30.00" timeLoss="39.25" speed="0.98" speedRelative="0.18" departed="1" arrived="0" entered="2" left="3" laneChangedFrom="0" laneChangedTo="0" flow="2.88"/>
        <edge id="-1071851919#2" sampledSeconds="0.47" traveltime="0.05" overlapTraveltime="0.47" density="0.07" overlapDensity="0.65" laneDensity="0.07" occupancy="0.01" waitingTime="0.00" timeLoss="0.19" speed="3.86" speedRelative="0.69" departed="0" arrived="0" entered="1" left="1" laneChangedFrom="0" laneChangedTo="0" flow="1.00"/>
        <edge id="-1073006577" sampledSeconds="0.00" departed="0" arrived="0" entered="0" left="0" laneChangedFrom="0" laneChangedTo="0"/>
        <edge id="-1073006578" sampledSeconds="2.06" traveltime="1.86" overlapTraveltime="2.60" density="0.06" overlapDensity="0.09" laneDensity="0.06" occupancy="0.01" waitingTime="0.00" timeLoss="0.83" speed="3.13" speedRelative="0.56" departed="1" arrived="0" entered="0" left="1" laneChangedFrom="0" laneChangedTo="0" flow="0.74"/>
        <edge id="-1073006580" sampledSeconds="0.00" departed="0" arrived="0" entered="0" left="0" laneChangedFrom="0" laneChangedTo="0"/>
        <edge id="-1073006581" sampledSeconds="0.00" departed="0" arrived="0" entered="0" left="0" laneChangedFrom="0" laneChangedTo="0"/>
        <edge id="-1076778409" sampledSeconds="0.00" departed="0" arrived="0" entered="0" left="0" laneChangedFrom="0" laneChangedTo="0"/>
        <edge id="-108040331#1" sampledSeconds="0.00" departed="0" arrived="0" entered="0" left="0" laneChangedFrom="0" laneChangedTo="0"/>
        <edge id="-108045029#0" sampledSeconds="3.88" traveltime="0.02" overlapTraveltime="0.61" density="0.29" overlapDensity="5.39" laneDensity="0.29" occupancy="0.10" waitingTime="0.00" timeLoss="0.86" speed="8.53" speedRelative="0.61" departed="0" arrived="8" entered="9" left="1" laneChangedFrom="0" laneChangedTo="0" flow="9.00"/>
        <edge id="-108045029#1" sampledSeconds="120.24" traveltime="12.90" overlapTraveltime="13.42" density="0.24" overlapDensity="0.25" laneDensity="0.24" occupancy="0.11" waitingTime="0.00" timeLoss="15.96" speed="10.32" speedRelative="0.74" departed="0" arrived="0" entered="9" left="9" laneChangedFrom="0" laneChangedTo="0" flow="9.00"/>
        <edge id="-108636964#0" sampledSeconds="2.84" traveltime="0.05" overlapTraveltime="0.95" density="0.19" overlapDensity="3.94" laneDensity="0.19" occupancy="0.07" waitingTime="1.00" timeLoss="1.91" speed="1.90" speedRelative="0.34" departed="0" arrived="1" entered="3" left="2" laneChangedFrom="0" laneChangedTo="0" flow="3.00"/>
        <edge id="-108636964#1" sampledSeconds="47.61" traveltime="23.52" overlapTraveltime="23.80" density="0.10" overlapDensity="0.10" laneDensity="0.10" occupancy="0.02" waitingTime="0.00" timeLoss="2.80" speed="5.84" speedRelative="1.05" departed="0" arrived="0" entered="2" left="2" laneChangedFrom="0" laneChangedTo="0" flow="2.00"/>
        <edge id="-108686053#0" sampledSeconds="5.96" traveltime="1.31" overlapTraveltime="2.01" density="0.10" overlapDensity="0.15" laneDensity="0.10" occupancy="0.05" waitingTime="0.00" timeLoss="1.56" speed="8.10" speedRelative="0.58" departed="0" arrived="1" entered="3" left="2" laneChangedFrom="0" laneChangedTo="0" flow="3.00"/>
        <edge id="-108686053#1" sampledSeconds="18.07" traveltime="5.90" overlapTraveltime="6.32" density="0.07" overlapDensity="0.07" laneDensity="0.07" occupancy="0.03" waitingTime="0.00" timeLoss="3.19" speed="11.60" speedRelative="0.84" departed="2" arrived="0" entered="1" left="3" laneChangedFrom="0" laneChangedTo="0" flow="2.85"/>
        <edge id="-108686154#0" sampledSeconds="49.00" traveltime="7.34" overlapTraveltime="8.34" density="0.14" overlapDensity="0.16" laneDensity="0.14" occupancy="0.10" waitingTime="0.00" timeLoss="7.21" speed="11.25" speedRelative="0.81" departed="0" arrived="4" entered="6" left="2" laneChangedFrom="0" laneChangedTo="0" flow="6.00"/>