<?xml version="1.0" encoding="UTF-8"?>

<!-- generated on 2026-04-13T23:45:49.076765+01:00 by Eclipse SUMO GUI 1.26.0
<sumoConfiguration xmlns:xsi="http://www.w3.org/2001/XMLSchema-instance" xsi:noNamespaceSchemaLocation="http://sumo.dlr.de/xsd/sumoConfiguration.xsd">

    <input>
        <net-file value="osm.net.xml.gz"/>
        <route-files value="osm_pt.rou.xml,osm.bicycle.trips.xml,osm.bus.trips.xml,osm.motorcycle.trips.xml,osm.passenger.trips.xml,osm.pedestrian.rou.xml,osm.truck.trips.xml"/>
        <additional-files value="osm.poly.xml.gz,osm_stops.add.xml,output.add.xml"/>
    </input>

    <output>
        <emission-output value="emission.xml"/>
        <fcd-output value="fcd.xml"/>
        <tripinfo-output value="tripinfos.xml"/>
        <stop-output value="stopinfos.xml"/>
        <statistic-output value="stats.xml"/>
    </output>

    <processing>
        <ignore-route-errors value="true"/>
        <tls.actuated.jam-threshold value="30"/>
    </processing>

    <routing>
        <device.rerouting.adaptation-steps value="18"/>
        <device.rerouting.adaptation-interval value="10"/>
    </routing>

    <report>
        <verbose value="true"/>
        <duration-log.statistics value="true"/>
        <no-step-log value="true"/>
    </report>

    <gui_only>
        <gui-settings-file value="osm.view.xml"/>
    </gui_only>

</sumoConfiguration>
-->

<tripinfos xmlns:xsi="http://www.w3.org/2001/XMLSchema-instance" xsi:noNamespaceSchemaLocation="http://sumo.dlr.de/xsd/tripinfo_file.xsd">
    <tripinfo id="motorcycle1" depart="8.00" departLane="410529592#1_0" departPos="2.30" departSpeed="0.00" departDelay="0.56" arrival="34.00" arrivalLane="-203589962#1_1" arrivalPos="125.98" arrivalSpeed="14.69" duration="26.00" routeLength="250.89" waitingTime="0.00" waitingCount="0" stopTime="0.00" timeLoss="7.37" rerouteNo="1" devices="tripinfo_motorcycle1 routing_motorcycle1 emissions_motorcycle1 fcd_motorcycle1" vType="motorcycle_motorcycle" speedFactor="1.08" vaporized="">
        <emissions CO_abs="1910.39" CO2_abs="63833.72" HC_abs="662.30" PMx_abs="12.66" NOx_abs="97.43" fuel_abs="20697.99" electricity_abs="0.00"/>
    </tripinfo>
    <personinfo id="ped69" depart="15.00" type="ped_pedestrian" speedFactor="0.90" duration="36.00" waitingTime="1.00" timeLoss="4.97" traveltime="36.00">
        <walk depart="15.00" departPos="0.00" arrival="51.00" arrivalPos="14.65" duration="36.00" routeLength="38.74" timeLoss="4.97" maxSpeed="1.25" waitingTime="1.00"/>
    </personinfo>
    <tripinfo id="veh12" depart="14.00" departLane="1013138963#0_1" departPos="5.10" departSpeed="14.68" departDelay="0.50" arrival="68.00" arrivalLane="547154356#1_0" arrivalPos="51.75" arrivalSpeed="14.53" duration="54.00" routeLength="605.68" waitingTime="0.00" waitingCount="0" stopTime="0.00" timeLoss="10.65" rerouteNo="1" devices="tripinfo_veh12 routing_veh12 emissions_veh12 fcd_veh12" vType="veh_passenger" speedFactor="1.06" vaporized="">
        <emissions CO_abs="1060.40" CO2_abs="170296.15" HC_abs="7.05" PMx_abs="14.81" NOx_abs="57.62" fuel_abs="55207.53" electricity_abs="0.00"/>
    </tripinfo>
    <tripinfo id="veh14" depart="16.00" departLane="266143650#2_0" departPos="5.10" departSpeed="0.00" departDelay="0.25" arrival="94.00" arrivalLane="1491183946#2_1" arrivalPos="27.45" arrivalSpeed="11.66" duration="78.00" routeLength="668.69" waitingTime="0.00" waitingCount="0" stopTime="0.00" timeLoss="19.98" rerouteNo="1" devices="tripinfo_veh14 routing_veh14 emissions_veh14 fcd_veh14" vType="veh_passenger" speedFactor="0.91" vaporized="">
        <emissions CO_abs="1020.03" CO2_abs="219018.91" HC_abs="6.75" PMx_abs="14.98" NOx_abs="69.70" fuel_abs="71002.54" electricity_abs="0.00"/>
    </tripinfo>
    <tripinfo id="motorcycle2" depart="15.00" departLane="-38359868#2_1" departPos="2.30" departSpeed="0.00" departDelay="0.11" arrival="101.00" arrivalLane="-108045029#0_0" arrivalPos="0.20" arrivalSpeed="12.16" duration="86.00" routeLength="833.90" waitingTime="0.00" waitingCount="0" stopTime="0.00" timeLoss="17.21" rerouteNo="1" devices="tripinfo_motorcycle2 routing_motorcycle2 emissions_motorcycle2 fcd_motorcycle2" vType="motorcycle_motorcycle" speedFactor="0.97" vaporized="">
        <emissions CO_abs="3671.68" CO2_abs="147930.18" HC_abs="1661.46" PMx_abs="32.83" NOx_abs="202.99" fuel_abs="47966.67" electricity_abs="0.00"/>
    </tripinfo>
    <tripinfo id="bike4" depart="17.00" departLane="-87494509#1_0" departPos="1.70" departSpeed="0.00" departDelay="0.86" arrival="102.00" arrivalLane="-1068024437#0_0" arrivalPos="72.68" arrivalSpeed="5.76" duration="85.00" routeLength="440.72" waitingTime="0.00" waitingCount="0" stopTime="0.00" timeLoss="8.12" rerouteNo="1" devices="tripinfo_bike4 routing_bike4 emissions_bike4 fcd_bike4" vType="bike_bicycle" speedFactor="1.05" vaporized="">
        <emissions CO_abs="0.00" CO2_abs="0.00" HC_abs="0.00" PMx_abs="0.00" NOx_abs="0.00" fuel_abs="0.00" electricity_abs="0.00"/>
    </tripinfo>
    <tripinfo id="veh27" depart="31.00" departLane="-424514814#1_0" departPos="5.10" departSpeed="12.89" departDelay="0.62" arrival="102.00" arrivalLane="115560895#1_0" arrivalPos="41.14" arrivalSpeed="12.39" duration="71.00" routeLength="704.27" waitingTime="0.00" waitingCount="0" stopTime="0.00" timeLoss="12.27" rerouteNo="1" devices="tripinfo_veh27 routing_veh27 emissions_veh27 fcd_veh27" vType="veh_passenger" speedFactor="0.93" vaporized="">
        <emissions CO_abs="1072.08" CO2_abs="196952.14" HC_abs="7.11" PMx_abs="15.86" NOx_abs="65.74" fuel_abs="63849.07" electricity_abs="0.00"/>
    </tripinfo>
    <personinfo id="ped33" depart="7.00" type="ped_pedestrian" speedFactor="1.14" duration="97.00" waitingTime="0.00" timeLoss="9.99" traveltime="97.00">
        <walk depart="7.00" departPos="0.00" arrival="104.00" arrivalPos="21.89" duration="97.00" routeLength="137.19" timeLoss="9.99" maxSpeed="1.58" waitingTime="0.00"/>
    </personinfo>
    <tripinfo id="veh8" depart="9.00" departLane="-115561673#4_0" departPos="5.10" departSpeed="12.39" departDelay="0.00" arrival="104.00" arrivalLane="114531734#2_0" arrivalPos="120.38" arrivalSpeed="12.07" duration="95.00" routeLength="713.32" waitingTime="18.00" waitingCount="1" stopTime="0.00" timeLoss="34.82" rerouteNo="1" devices="tripinfo_veh8 routing_veh8 emissions_veh8 fcd_veh8" vType="veh_passenger" speedFactor="0.89" vaporized="">
        <emissions CO_abs="765.18" CO2_abs="201465.67" HC_abs="5.10" PMx_abs="15.08" NOx_abs="69.26" fuel_abs="65312.66" electricity_abs="0.00"/>
    </tripinfo>
    <tripinfo id="veh5" depart="6.00" departLane="-1461641387_1" departPos="5.10" departSpeed="13.99" departDelay="0.37" arrival="106.00" arrivalLane="38393868#0_0" arrivalPos="4.80" arrivalSpeed="13.90" duration="100.00" routeLength="875.57" waitingTime="7.00" waitingCount="2" stopTime="0.00" timeLoss="34.77" rerouteNo="1" devices="tripinfo_veh5 routing_veh5 emissions_veh5 fcd_veh5" vType="veh_passenger" speedFactor="1.01" vaporized="">
        <emissions CO_abs="1558.14" CO2_abs="285911.50" HC_abs="10.33" PMx_abs="19.41" NOx_abs="94.48" fuel_abs="92688.10" electricity_abs="0.00"/>
    </tripinfo>
    <tripinfo id="motorcycle6" depart="45.00" departLane="1461641443#0_1" departPos="2.30" departSpeed="13.71" departDelay="0.34" arrival="112.00" arrivalLane="-115673962#0_0" arrivalPos="99.01" arrivalSpeed="13.25" duration="67.00" routeLength="429.10" waitingTime="22.00" waitingCount="1" stopTime="0.00" timeLoss="33.09" rerouteNo="1" devices="tripinfo_motorcycle6 routing_motorcycle6 emissions_motorcycle6 fcd_motorcycle6" vType="motorcycle_motorcycle" speedFactor="0.99" vaporized="">
        <emissions CO_abs="1919.33" CO2_abs="107187.01" HC_abs="1399.33" PMx_abs="28.36" NOx_abs="115.38" fuel_abs="34756.29" electricity_abs="0.00"/>
    </tripinfo>
    <tripinfo id="motorcycle11" depart="82.00" departLane="-417192344#2_0" departPos="0.20" departSpeed="0.00" departDelay="0.13" arrival="116.00" arrivalLane="-1125927213#1_0" arrivalPos="23.52" arrivalSpeed="14.34" duration="34.00" routeLength="257.74" waitingTime="2.00" waitingCount="2" stopTime="0.00" timeLoss="13.67" rerouteNo="1" devices="tripinfo_motorcycle11 routing_motorcycle11 emissions_motorcycle11 fcd_motorcycle11" vType="motorcycle_motorcycle" speedFactor="1.04" vaporized="">
        <emissions CO_abs="1912.77" CO2_abs="75308.69" HC_abs="813.23" PMx_abs="15.47" NOx_abs="106.75" fuel_abs="24418.79" electricity_abs="0.00"/>
    </tripinfo>
    <personinfo id="ped31" depart="7.00" type="ped_pedestrian" speedFactor="0.97" duration="111.00" waitingTime="2.00" timeLoss="15.36" traveltime="111.00">
        <walk depart="7.00" departPos="0.00" arrival="118.00" arrivalPos="0.10" duration="111.00" routeLength="128.64" timeLoss="15.36" maxSpeed="1.34" waitingTime="2.00"/>
    </personinfo>
    <tripinfo id="veh41" depart="47.00" departLane="417192344#2_0" departPos="0.20" departSpeed="0.00" departDelay="0.87" arrival="119.00" arrivalLane="-38359857#1_0" arrivalPos="98.97" arrivalSpeed="13.52" duration="72.00" routeLength="671.23" waitingTime="4.00" waitingCount="1" stopTime="0.00" timeLoss="24.45" rerouteNo="1" devices="tripinfo_veh41 routing_veh41 emissions_veh41 fcd_veh41" vType="veh_passenger" speedFactor="1.06" vaporized="">
        <emissions CO_abs="1215.66" CO2_abs="214582.99" HC_abs="8.06" PMx_abs="14.55" NOx_abs="70.96" fuel_abs="69564.40" electricity_abs="0.00"/>
    </tripinfo>
    <personinfo id="ped409" depart="84.00" type="ped_pedestrian" speedFactor="1.00" duration="37.00" waitingTime="2.00" timeLoss="7.69" traveltime="37.00">
        <walk depart="84.00" departPos="0.00" arrival="121.00" arrivalPos="0.10" duration="37.00" routeLength="40.90" timeLoss="7.69" maxSpeed="1.40" waitingTime="2.00"/>
    </personinfo>
    <tripinfo id="truck4" depart="23.00" departLane="-417235700_0" departPos="7.20" departSpeed="14.10" departDelay="0.50" arrival="123.00" arrivalLane="87494509#5_0" arrivalPos="0.20" arrivalSpeed="4.82" duration="100.00" routeLength="914.09" waitingTime="13.00" waitingCount="2" stopTime="0.00" timeLoss="32.47" rerouteNo="1" devices="tripinfo_truck4 routing_truck4 emissions_truck4 fcd_truck4" vType="truck_truck" speedFactor="1.02" vaporized="">
        <emissions CO_abs="125.17" CO2_abs="434505.47" HC_abs="10.26" PMx_abs="133.56" NOx_abs="193.39" fuel_abs="139643.84" electricity_abs="0.00"/>
    </tripinfo>
    <tripinfo id="veh38" depart="43.00" departLane="1062204371_0" departPos="5.10" departSpeed="0.00" departDelay="0.24" arrival="125.00" arrivalLane="108686053#1_0" arrivalPos="67.45" arrivalSpeed="14.18" duration="82.00" routeLength="816.42" waitingTime="0.00" waitingCount="0" stopTime="0.00" timeLoss="21.37" rerouteNo="1" devices="tripinfo_veh38 routing_veh38 emissions_veh38 fcd_veh38" vType="veh_passenger" speedFactor="1.10" vaporized="">
        <emissions CO_abs="1741.15" CO2_abs="278349.05" HC_abs="11.54" PMx_abs="19.68" NOx_abs="92.15" fuel_abs="90236.36" electricity_abs="0.00"/>
    </tripinfo>
    <tripinfo id="veh25" depart="29.00" departLane="-115514116#5_0" departPos="5.10" departSpeed="14.79" departDelay="0.87" arrival="126.00" arrivalLane="723313369#4_0" arrivalPos="6.87" arrivalSpeed="8.63" duration="97.00" routeLength="1042.75" waitingTime="0.00" waitingCount="0" stopTime="0.00" timeLoss="18.66" rerouteNo="1" devices="tripinfo_veh25 routing_veh25 emissions_veh25 fcd_veh25" vType="veh_passenger" speedFactor="1.06" vaporized="">
        <emissions CO_abs="1712.35" CO2_abs="278176.59" HC_abs="11.37" PMx_abs="22.97" NOx_abs="93.98" fuel_abs="90180.78" electricity_abs="0.00"/>
    </tripinfo>
    <tripinfo id="veh16" depart="19.00" departLane="547154357#0_2" departPos="0.20" departSpeed="0.00" departDelay="1.00" arrival="127.00" arrivalLane="630462798#5_0" arrivalPos="14.60" arrivalSpeed="11.68" duration="108.00" routeLength="879.34" waitingTime="18.00" waitingCount="1" stopTime="0.00" timeLoss="47.49" rerouteNo="1" devices="tripinfo_veh16 routing_veh16 emissions_veh16 fcd_veh16" vType="veh_passenger" speedFactor="1.10" vaporized="">
        <emissions CO_abs="1872.60" CO2_abs="322126.47" HC_abs="12.40" PMx_abs="19.62" NOx_abs="108.49" fuel_abs="104428.52" electricity_abs="0.00"/>
    </tripinfo>
    <personinfo id="ped278" depart="57.00" type="ped_pedestrian" speedFactor="0.93" duration="74.00" waitingTime="0.00" timeLoss="8.63" traveltime="74.00">
        <walk depart="57.00" departPos="0.00" arrival="131.00" arrivalPos="36.75" duration="74.00" routeLength="84.60" timeLoss="8.63" maxSpeed="1.29" waitingTime="0.00"/>
    </personinfo>
    <tripinfo id="bike19" depart="77.00" departLane="-1461641458#3_0" departPos="1.70" departSpeed="0.00" departDelay="0.35" arrival="134.00" arrivalLane="-694766184#2_0" arrivalPos="1.87" arrivalSpeed="5.14" duration="57.00" routeLength="268.21" waitingTime="0.00" waitingCount="0" stopTime="0.00" timeLoss="5.19" rerouteNo="1" devices="tripinfo_bike19 routing_bike19 emissions_bike19 fcd_bike19" vType="bike_bicycle" speedFactor="0.95" vaporized="">
        <emissions CO_abs="0.00" CO2_abs="0.00" HC_abs="0.00" PMx_abs="0.00" NOx_abs="0.00" fuel_abs="0.00" electricity_abs="0.00"/>
    </tripinfo>
    <tripinfo id="motorcycle0" depart="0.00" departLane="108045029#0_0" departPos="0.20" departSpeed="14.03" departDelay="0.00" arrival="135.00" arrivalLane="116625957#1_0" arrivalPos="96.85" arrivalSpeed="10.92" duration="135.00" routeLength="985.40" waitingTime="16.00" waitingCount="2" stopTime="0.00" timeLoss="54.15" rerouteNo="1" devices="tripinfo_motorcycle0 routing_motorcycle0 emissions_motorcycle0 fcd_motorcycle0" vType="motorcycle_motorcycle" speedFactor="1.01" vaporized="">
        <emissions CO_abs="3750.32" CO2_abs="195165.27" HC_abs="2337.79" PMx_abs="47.33" NOx_abs="227.42" fuel_abs="63283.36" electricity_abs="0.00"/>
    </tripinfo>
    <personinfo id="ped71" depart="15.00" type="ped_pedestrian" speedFactor="1.02" duration="121.00" waitingTime="0.00" timeLoss="13.26" traveltime="121.00">
        <walk depart="15.00" departPos="0.00" arrival="136.00" arrivalPos="0.07" duration="121.00" routeLength="152.97" timeLoss="13.26" maxSpeed="1.42" waitingTime="0.00"/>
    </personinfo>
    <personinfo id="ped381" depart="78.00" type="ped_pedestrian" speedFactor="1.06" duration="62.00" waitingTime="0.00" timeLoss="6.64" traveltime="62.00">
        <walk depart="78.00" departPos="0.00" arrival="140.00" arrivalPos="23.02" duration="62.00" routeLength="81.24" timeLoss="6.64" maxSpeed="1.47" waitingTime="0.00"/>
    </personinfo>
    <personinfo id="ped384" depart="79.00" type="ped_pedestrian" speedFactor="0.91" duration="62.00" waitingTime="0.00" timeLoss="6.93" traveltime="62.00">
        <walk depart="79.00" departPos="0.00" arrival="141.00" arrivalPos="24.66" duration="62.00" routeLength="69.35" timeLoss="6.93" maxSpeed="1.26" waitingTime="0.00"/>
    </personinfo>
    <tripinfo id="veh36" depart="41.00" departLane="38359857#0_0" departPos="5.10" departSpeed="14.87" departDelay="0.49" arrival="142.00" arrivalLane="108932067_0" arrivalPos="50.83" arrivalSpeed="14.82" duration="101.00" routeLength="1176.71" waitingTime="0.00" waitingCount="0" stopTime="0.00" timeLoss="17.90" rerouteNo="1" devices="tripinfo_veh36 routing_veh36 emissions_veh36 fcd_veh36" vType="veh_passenger" speedFactor="1.07" vaporized="">
        <emissions CO_abs="1789.12" CO2_abs="283727.10" HC_abs="11.91" PMx_abs="27.23" NOx_abs="98.26" fuel_abs="91980.41" electricity_abs="0.00"/>
    </tripinfo>
    <tripinfo id="veh56" depart="64.00" departLane="1491183962#1_0" departPos="0.20" departSpeed="0.00" departDelay="0.99" arrival="144.00" arrivalLane="-115560987_0" arrivalPos="70.83" arrivalSpeed="12.34" duration="80.00" routeLength="540.92" waitingTime="21.00" waitingCount="1" stopTime="0.00" timeLoss="35.79" rerouteNo="1" devices="tripinfo_veh56 routing_veh56 emissions_veh56 fcd_veh56" vType="veh_passenger" speedFactor="0.95" vaporized="">
        <emissions CO_abs="1019.78" CO2_abs="220876.35" HC_abs="6.75" PMx_abs="12.58" NOx_abs="73.53" fuel_abs="71604.92" electricity_abs="0.00"/>
    </tripinfo>
    <personinfo id="ped577" depart="118.00" type="ped_pedestrian" speedFactor="1.18" duration="28.00" waitingTime="0.00" timeLoss="3.11" traveltime="28.00">
        <walk depart="118.00" departPos="0.00" arrival="146.00" arrivalPos="40.73" duration="28.00" routeLength="40.73" timeLoss="3.11" maxSpeed="1.64" waitingTime="0.00"/>
    </personinfo>
    <personinfo id="ped446" depart="91.00" type="ped_pedestrian" speedFactor="1.00" duration="55.00" waitingTime="2.00" timeLoss="9.28" traveltime="55.00">
        <walk depart="91.00" departPos="0.00" arrival="146.00" arrivalPos="10.64" duration="55.00" routeLength="63.77" timeLoss="9.28" maxSpeed="1.39" waitingTime="2.00"/>
    </personinfo>
    <tripinfo id="veh3" depart="4.00" departLane="-624091858#3_1" departPos="5.10" departSpeed="13.91" departDelay="0.62" arrival="146.00" arrivalLane="243006968#1_0" arrivalPos="96.13" arrivalSpeed="8.30" duration="142.00" routeLength="1095.81" waitingTime="29.00" waitingCount="1" stopTime="0.00" timeLoss="55.10" rerouteNo="1" devices="tripinfo_veh3 routing_veh3 emissions_veh3 fcd_veh3" vType="veh_passenger" speedFactor="1.00" vaporized="">
        <emissions CO_abs="1737.27" CO2_abs="361397.02" HC_abs="11.52" PMx_abs="24.84" NOx_abs="123.29" fuel_abs="117160.04" electricity_abs="0.00"/>
    </tripinfo>
    <tripinfo id="veh22" depart="25.00" departLane="-108934130_0" departPos="5.10" departSpeed="0.00" departDelay="0.25" arrival="149.00" arrivalLane="453743055_0" arrivalPos="31.96" arrivalSpeed="14.79" duration="124.00" routeLength="1377.21" waitingTime="0.00" waitingCount="0" stopTime="0.00" timeLoss="27.44" rerouteNo="1" devices="tripinfo_veh22 routing_veh22 emissions_veh22 fcd_veh22" vType="veh_passenger" speedFactor="1.07" vaporized="">
        <emissions CO_abs="2653.65" CO2_abs="409753.87" HC_abs="17.61" PMx_abs="32.02" NOx_abs="137.55" fuel_abs="132835.95" electricity_abs="0.00"/>
    </tripinfo>
    <tripinfo id="motorcycle5" depart="38.00" departLane="949547103#0_0" departPos="2.30" departSpeed="0.00" departDelay="0.79" arrival="153.00" arrivalLane="203589956#1_1" arrivalPos="101.92" arrivalSpeed="11.54" duration="115.00" routeLength="1113.44" waitingTime="1.00" waitingCount="1" stopTime="0.00" timeLoss="26.10" rerouteNo="1" devices="tripinfo_motorcycle5 routing_motorcycle5 emissions_motorcycle5 fcd_motorcycle5" vType="motorcycle_motorcycle" speedFactor="1.02" vaporized="">
        <emissions CO_abs="5245.26" CO2_abs="191320.26" HC_abs="2126.31" PMx_abs="41.24" NOx_abs="278.12" fuel_abs="62035.82" electricity_abs="0.00"/>
    </tripinfo>
    <personinfo id="ped517" depart="106.00" type="ped_pedestrian" speedFactor="1.03" duration="50.00" waitingTime="0.00" timeLoss="5.02" traveltime="50.00">
        <walk depart="106.00" departPos="0.00" arrival="156.00" arrivalPos="9.30" duration="50.00" routeLength="64.38" timeLoss="5.02" maxSpeed="1.43" waitingTime="0.00"/>
    </personinfo>
    <tripinfo id="bus1" depart="12.00" departLane="108045029#0_0" departPos="0.20" departSpeed="13.89" departDelay="0.75" arrival="156.00" arrivalLane="115561178#1_0" arrivalPos="20.20" arrivalSpeed="8.64" duration="144.00" routeLength="1369.41" waitingTime="1.00" waitingCount="1" stopTime="0.00" timeLoss="38.92" rerouteNo="1" devices="tripinfo_bus1 routing_bus1 emissions_bus1 fcd_bus1" vType="bus_bus" speedFactor="1.00" vaporized="">
        <emissions CO_abs="363.48" CO2_abs="1990561.55" HC_abs="31.52" PMx_abs="191.66" NOx_abs="637.69" fuel_abs="639705.81" electricity_abs="0.00"/>
    </tripinfo>
    <tripinfo id="veh4" depart="5.00" departLane="-1125937900#1_0" departPos="5.10" departSpeed="0.00" departDelay="0.50" arrival="156.00" arrivalLane="1491172359#0_1" arrivalPos="71.36" arrivalSpeed="13.60" duration="151.00" routeLength="1484.17" waitingTime="22.00" waitingCount="1" stopTime="0.00" timeLoss="43.18" rerouteNo="1" devices="tripinfo_veh4 routing_veh4 emissions_veh4 fcd_veh4" vType="veh_passenger" speedFactor="1.04" vaporized="">
        <emissions CO_abs="2016.47" CO2_abs="377018.80" HC_abs="13.45" PMx_abs="33.22" NOx_abs="130.47" fuel_abs="122224.45" electricity_abs="0.00"/>
    </tripinfo>
    <tripinfo id="motorcycle10" depart="76.00" departLane="115560895#1_0" departPos="2.30" departSpeed="0.00" departDelay="1.57" arrival="157.00" arrivalLane="694603074#2_1" arrivalPos="53.43" arrivalSpeed="9.99" duration="81.00" routeLength="734.53" waitingTime="0.00" waitingCount="0" stopTime="0.00" timeLoss="19.44" rerouteNo="1" devices="tripinfo_motorcycle10 routing_motorcycle10 emissions_motorcycle10 fcd_motorcycle10" vType="motorcycle_motorcycle" speedFactor="0.91" vaporized="">
        <emissions CO_abs="2660.26" CO2_abs="113602.95" HC_abs="1231.46" PMx_abs="24.43" NOx_abs="155.28" fuel_abs="36835.91" electricity_abs="0.00"/>
    </tripinfo>
    <tripinfo id="veh19" depart="22.00" departLane="108045029#0_0" departPos="0.20" departSpeed="13.45" departDelay="0.62" arrival="157.00" arrivalLane="422195693#1_0" arrivalPos="72.39" arrivalSpeed="12.42" duration="135.00" routeLength="1185.17" waitingTime="11.00" waitingCount="1" stopTime="0.00" timeLoss="32.90" rerouteNo="1" devices="tripinfo_veh19 routing_veh19 emissions_veh19 fcd_veh19" vType="veh_passenger" speedFactor="0.97" vaporized="">
        <emissions CO_abs="1295.71" CO2_abs="295879.63" HC_abs="8.63" PMx_abs="25.02" NOx_abs="100.78" fuel_abs="95920.37" electricity_abs="0.00"/>
    </tripinfo>
    <tripinfo id="truck8" depart="46.00" departLane="824158743#1_1" departPos="7.20" departSpeed="0.00" departDelay="0.99" arrival="157.00" arrivalLane="-108686154#0_0" arrivalPos="86.90" arrivalSpeed="13.02" duration="111.00" routeLength="941.28" waitingTime="12.00" waitingCount="1" stopTime="0.00" timeLoss="33.29" rerouteNo="1" devices="tripinfo_truck8 routing_truck8 emissions_truck8 fcd_truck8" vType="truck_truck" speedFactor="0.95" vaporized="">
        <emissions CO_abs="157.17" CO2_abs="545549.75" HC_abs="12.46" PMx_abs="151.54" NOx_abs="224.55" fuel_abs="175327.65" electricity_abs="0.00"/>
    </tripinfo>
    <tripinfo id="veh29" depart="33.00" departLane="1461641443#0_2" departPos="5.10" departSpeed="15.26" departDelay="0.37" arrival="158.00" arrivalLane="116451461#1_1" arrivalPos="35.42" arrivalSpeed="13.49" duration="125.00" routeLength="1315.93" waitingTime="1.00" waitingCount="1" stopTime="0.00" timeLoss="18.48" rerouteNo="1" devices="tripinfo_veh29 routing_veh29 emissions_veh29 fcd_veh29" vType="veh_passenger" speedFactor="1.10" vaporized="">
        <emissions CO_abs="1643.58" CO2_abs="293388.50" HC_abs="10.94" PMx_abs="27.76" NOx_abs="101.95" fuel_abs="95112.61" electricity_abs="0.00"/>
    </tripinfo>
    <personinfo id="ped748" depart="153.00" type="ped_pedestrian" speedFactor="1.09" duration="6.00" waitingTime="0.00" timeLoss="1.29" traveltime="6.00">
        <walk depart="153.00" departPos="0.00" arrival="159.00" arrivalPos="7.13" duration="6.00" routeLength="7.13" timeLoss="1.29" maxSpeed="1.52" waitingTime="0.00"/>
    </personinfo>
    <tripinfo id="veh32" depart="37.00" departLane="203589976#3_0" departPos="5.10" departSpeed="0.00" departDelay="0.99" arrival="159.00" arrivalLane="547154357#3_1" arrivalPos="152.73" arrivalSpeed="12.54" duration="122.00" routeLength="1002.95" waitingTime="9.00" waitingCount="1" stopTime="0.00" timeLoss="40.66" rerouteNo="1" devices="tripinfo_veh32 routing_veh32 emissions_veh32 fcd_veh32" vType="veh_passenger" speedFactor="0.92" vaporized="">
        <emissions CO_abs="1080.59" CO2_abs="264222.44" HC_abs="7.19" PMx_abs="21.41" NOx_abs="88.58" fuel_abs="85657.33" electricity_abs="0.00"/>
    </tripinfo>
    <tripinfo id="veh11" depart="13.00" departLane="203589969#1_1" departPos="5.10" departSpeed="0.00" departDelay="0.62" arrival="161.00" arrivalLane="87494508#0_1" arrivalPos="0.20" arrivalSpeed="5.75" duration="148.00" routeLength="1421.71" waitingTime="1.00" waitingCount="1" stopTime="0.00" timeLoss="43.39" rerouteNo="1" devices="tripinfo_veh11 routing_veh11 emissions_veh11 fcd_veh11" vType="veh_passenger" speedFactor="1.09" vaporized="">
        <emissions CO_abs="2307.66" CO2_abs="400807.75" HC_abs="15.30" PMx_abs="29.64" NOx_abs="132.83" fuel_abs="129935.73" electricity_abs="0.00"/>
    </tripinfo>
    <tripinfo id="veh53" depart="60.00" departLane="949547104_0" departPos="5.10" departSpeed="9.59" departDelay="0.37" arrival="161.00" arrivalLane="115561161#1_0" arrivalPos="22.93" arrivalSpeed="11.94" duration="101.00" routeLength="1137.45" waitingTime="0.00" waitingCount="0" stopTime="0.00" timeLoss="23.42" rerouteNo="1" devices="tripinfo_veh53 routing_veh53 emissions_veh53 fcd_veh53" vType="veh_passenger" speedFactor="1.12" vaporized="">
        <emissions CO_abs="2139.74" CO2_abs="331013.96" HC_abs="14.22" PMx_abs="27.53" NOx_abs="111.64" fuel_abs="107309.77" electricity_abs="0.00"/>
    </tripinfo>
    <tripinfo id="veh0" depart="0.00" departLane="-424514808_0" departPos="5.10" departSpeed="14.31" departDelay="0.00" arrival="162.00" arrivalLane="115561673#4_0" arrivalPos="144.17" arrivalSpeed="13.15" duration="162.00" routeLength="1578.31" waitingTime="8.00" waitingCount="2" stopTime="0.00" timeLoss="41.06" rerouteNo="1" devices="tripinfo_veh0 routing_veh0 emissions_veh0 fcd_veh0" vType="veh_passenger" speedFactor="1.03" vaporized="">
        <emissions CO_abs="2507.96" CO2_abs="434741.43" HC_abs="16.66" PMx_abs="34.69" NOx_abs="147.64" fuel_abs="140936.91" electricity_abs="0.00"/>
    </tripinfo>
    <tripinfo id="veh31" depart="35.00" departLane="-1461641452#0_0" departPos="5.10" departSpeed="0.00" departDelay="0.12" arrival="162.00" arrivalLane="-108045029#0_0" arrivalPos="0.20" arrivalSpeed="15.18" duration="127.00" routeLength="696.41" waitingTime="43.00" waitingCount="2" stopTime="0.00" timeLoss="73.89" rerouteNo="1" devices="tripinfo_veh31 routing_veh31 emissions_veh31 fcd_veh31" vType="veh_passenger" speedFactor="1.10" vaporized="">
        <emissions CO_abs="1289.23" CO2_abs="306548.91" HC_abs="8.53" PMx_abs="15.34" NOx_abs="105.02" fuel_abs="99379.02" electricity_abs="0.00"/>
    </tripinfo>
    <tripinfo id="veh10" depart="12.00" departLane="-1491172372#1_0" departPos="5.10" departSpeed="0.00" departDelay="0.75" arrival="163.00" arrivalLane="-547154355#0_0" arrivalPos="110.88" arrivalSpeed="11.63" duration="151.00" routeLength="1209.55" waitingTime="34.00" waitingCount="2" stopTime="0.00" timeLoss="55.09" rerouteNo="1" devices="tripinfo_veh10 routing_veh10 emissions_veh10 fcd_veh10" vType="veh_passenger" speedFactor="0.92" vaporized="">
        <emissions CO_abs="1439.31" CO2_abs="344593.64" HC_abs="9.59" PMx_abs="26.26" NOx_abs="118.21" fuel_abs="111712.86" electricity_abs="0.00"/>
    </tripinfo>
    <tripinfo id="veh40" depart="46.00" departLane="372020013#1_0" departPos="5.10" departSpeed="0.00" departDelay="0.99" arrival="163.00" arrivalLane="164415954#2_0" arrivalPos="19.03" arrivalSpeed="13.13" duration="117.00" routeLength="1018.26" waitingTime="2.00" waitingCount="2" stopTime="0.00" timeLoss="36.66" rerouteNo="1" devices="tripinfo_veh40 routing_veh40 emissions_veh40 fcd_veh40" vType="veh_passenger" speedFactor="1.02" vaporized="">
        <emissions CO_abs="1693.53" CO2_abs="324530.87" HC_abs="11.24" PMx_abs="23.64" NOx_abs="107.63" fuel_abs="105208.01" electricity_abs="0.00"/>
    </tripinfo>
    <tripinfo id="veh81" depart="92.00" departLane="1491183960_0" departPos="5.10" departSpeed="0.00" departDelay="0.86" arrival="163.00" arrivalLane="114533140#1_1" arrivalPos="117.94" arrivalSpeed="14.10" duration="71.00" routeLength="785.78" waitingTime="0.00" waitingCount="0" stopTime="0.00" timeLoss="14.95" rerouteNo="1" devices="tripinfo_veh81 routing_veh81 emissions_veh81 fcd_veh81" vType="veh_passenger" speedFactor="1.05" vaporized="">
        <emissions CO_abs="1560.83" CO2_abs="240444.69" HC_abs="10.35" PMx_abs="18.66" NOx_abs="80.94" fuel_abs="77948.49" electricity_abs="0.00"/>
    </tripinfo>
    <personinfo id="ped386" depart="79.00" type="ped_pedestrian" speedFactor="1.04" duration="86.00" waitingTime="0.00" timeLoss="10.00" traveltime="86.00">
        <walk depart="79.00" departPos="0.00" arrival="165.00" arrivalPos="4.39" duration="86.00" routeLength="110.17" timeLoss="10.00" maxSpeed="1.45" waitingTime="0.00"/>
    </personinfo>
    <tripinfo id="veh13" depart="15.00" departLane="38393875#1_0" departPos="5.10" departSpeed="0.00" departDelay="0.37" arrival="168.00" arrivalLane="203589977#1_0" arrivalPos="69.15" arrivalSpeed="13.28" duration="153.00" routeLength="1523.28" waitingTime="11.00" waitingCount="3" stopTime="0.00" timeLoss="41.92" rerouteNo="1" devices="tripinfo_veh13 routing_veh13 emissions_veh13 fcd_veh13" vType="veh_passenger" speedFactor="1.01" vaporized="">
        <emissions CO_abs="2171.36" CO2_abs="411230.01" HC_abs="14.45" PMx_abs="35.59" NOx_abs="139.61" fuel_abs="133314.97" electricity_abs="0.00"/>
    </tripinfo>
    <tripinfo id="veh49" depart="56.00" departLane="1461641457#0_0" departPos="5.10" departSpeed="0.00" departDelay="0.87" arrival="168.00" arrivalLane="417228502#2_1" arrivalPos="127.83" arrivalSpeed="13.13" duration="112.00" routeLength="1034.95" waitingTime="11.00" waitingCount="1" stopTime="0.00" timeLoss="32.97" rerouteNo="1" devices="tripinfo_veh49 routing_veh49 emissions_veh49 fcd_veh49" vType="veh_passenger" speedFactor="0.96" vaporized="">
        <emissions CO_abs="1183.17" CO2_abs="266068.57" HC_abs="7.90" PMx_abs="23.96" NOx_abs="89.92" fuel_abs="86255.84" electricity_abs="0.00"/>
    </tripinfo>