<?xml version="1.0" encoding="UTF-8"?>

<!-- generated on 2026-05-22T11:40:56.842958+01:00 by Eclipse SUMO sumo 1.26.0
<sumoConfiguration xmlns:xsi="http://www.w3.org/2001/XMLSchema-instance" xsi:noNamespaceSchemaLocation="http://sumo.dlr.de/xsd/sumoConfiguration.xsd">

    <input>
        <net-file value="osm.net.xml.gz"/>
        <route-files value="osm_pt.rou.xml,osm.bicycle.rou.xml,osm.bus.rou.xml,osm.motorcycle.rou.xml,osm.passenger.rou.xml,osm.pedestrian.rou.xml,osm.truck.rou.xml"/>
        <additional-files value="osm.poly.xml.gz,osm_stops.add.xml,output.add.xml"/>
    </input>

    <output>
        <emission-output value="output/run_emission.xml"/>
        <fcd-output value="output/run_fcd.xml"/>
        <fcd-output.geo value="true"/>
        <tripinfo-output value="output/tripinfos.xml"/>
        <stop-output value="output/stopinfos.xml"/>
        <statistic-output value="output/stats.xml"/>
    </output>

    <time>
        <begin value="0"/>
        <end value="3600"/>
    </time>

    <processing>
        <ignore-route-errors value="true"/>
        <tls.actuated.jam-threshold value="30"/>
    </processing>

    <routing>
        <device.rerouting.adaptation-steps value="18"/>
        <device.rerouting.adaptation-interval value="10"/>
    </routing>

    <report>
        <verbose value="true"/>
        <duration-log.statistics value="true"/>
        <no-step-log value="true"/>
    </report>

    <gui_only>
        <gui-settings-file value="osm.view.xml"/>
        <quit-on-end value="false"/>
    </gui_only>

</sumoConfiguration>
-->

<meandata xmlns:xsi="http://www.w3.org/2001/XMLSchema-instance" xsi:noNamespaceSchemaLocation="http://sumo.dlr.de/xsd/meandata_file.xsd">
    <interval begin="0.00" end="3600.00" id="edge_stats_1h">
        <edge id="-1004737848" sampledSeconds="64.98" traveltime="10.83" overlapTraveltime="11.17" density="0.32" overlapDensity="0.33" laneDensity="0.32" occupancy="0.05" waitingTime="0.00" timeLoss="4.25" speed="5.04" speedRelative="0.91" departed="6" arrived="0" entered="0" left="6" laneChangedFrom="0" laneChangedTo="0" flow="5.81"/>
        <edge id="-1004737860" sampledSeconds="1153.50" traveltime="3.47" overlapTraveltime="6.43" density="10.28" overlapDensity="18.80" laneDensity="5.14" occupancy="3.95" waitingTime="640.00" timeLoss="818.46" speed="3.53" speedRelative="0.25" departed="0" arrived="4" entered="182" left="177" laneChangedFrom="2" laneChangedTo="2" flow="181.69"/>
        <edge id="-1004737861#2" sampledSeconds="3320.90" traveltime="21.69" overlapTraveltime="23.66" density="26.84" overlapDensity="29.01" laneDensity="6.71" occupancy="4.14" waitingTime="2165.00" timeLoss="2893.07" speed="1.60" speedRelative="0.12" departed="4" arrived="0" entered="139" left="139" laneChangedFrom="17" laneChangedTo="17" flow="141.63"/>
        <edge id="-1004744416#1" sampledSeconds="1664.23" traveltime="5.14" overlapTraveltime="5.76" density="9.53" overlapDensity="10.69" laneDensity="4.77" occupancy="2.39" waitingTime="0.00" timeLoss="447.21" speed="8.42" speedRelative="0.61" departed="9" arrived="1" entered="281" left="287" laneChangedFrom="41" laneChangedTo="41" flow="288.59"/>
        <edge id="-1004744417" sampledSeconds="2624.26" traveltime="7.72" overlapTraveltime="8.97" density="12.23" overlapDensity="14.21" laneDensity="6.11" occupancy="3.34" waitingTime="157.00" timeLoss="605.80" speed="6.31" speedRelative="0.76" departed="4" arrived="1" entered="289" left="292" laneChangedFrom="90" laneChangedTo="90" flow="292.60"/>
        <edge id="-1004744418#1" sampledSeconds="44.49" traveltime="13.83" overlapTraveltime="15.43" density="0.26" overlapDensity="0.29" laneDensity="0.26" occupancy="0.04" waitingTime="12.00" timeLoss="23.64" speed="2.85" speedRelative="0.51" departed="3" arrived="0" entered="0" left="3" laneChangedFrom="0" laneChangedTo="0" flow="2.88"/>
        <edge id="-1004744419" sampledSeconds="915.10" traveltime="2.29" overlapTraveltime="2.99" density="12.05" overlapDensity="15.70" laneDensity="6.02" occupancy="3.01" waitingTime="0.00" timeLoss="83.50" speed="7.15" speedRelative="0.86" departed="9" arrived="0" entered="300" left="309" laneChangedFrom="16" laneChangedTo="16" flow="306.16"/>
        <edge id="-1004744421" sampledSeconds="3980.43" traveltime="11.07" overlapTraveltime="11.73" density="13.49" overlapDensity="14.31" laneDensity="6.75" occupancy="3.23" waitingTime="0.00" timeLoss="392.31" speed="7.00" speedRelative="0.84" departed="3" arrived="1" entered="336" left="338" laneChangedFrom="62" laneChangedTo="62" flow="338.91"/>
        <edge id="-1013138963#0" sampledSeconds="0.00" departed="0" arrived="0" entered="0" left="0" laneChangedFrom="0" laneChangedTo="0"/>
        <edge id="-1021961409" sampledSeconds="0.00" departed="0" arrived="0" entered="0" left="0" laneChangedFrom="0" laneChangedTo="0"/>
        <edge id="-1022107860#0" sampledSeconds="0.00" departed="0" arrived="0" entered="0" left="0" laneChangedFrom="0" laneChangedTo="0"/>
        <edge id="-1022107860#1" sampledSeconds="0.00" departed="0" arrived="0" entered="0" left="0" laneChangedFrom="0" laneChangedTo="0"/>
        <edge id="-1022107860#3" sampledSeconds="0.00" departed="0" arrived="0" entered="0" left="0" laneChangedFrom="0" laneChangedTo="0"/>
        <edge id="-1022107860#4" sampledSeconds="0.00" departed="0" arrived="0" entered="0" left="0" laneChangedFrom="0" laneChangedTo="0"/>
        <edge id="-1022107861" sampledSeconds="0.00" departed="0" arrived="0" entered="0" left="0" laneChangedFrom="0" laneChangedTo="0"/>
        <edge id="-1022107862" sampledSeconds="0.00" departed="0" arrived="0" entered="0" left="0" laneChangedFrom="0" laneChangedTo="0"/>
        <edge id="-1022114281" sampledSeconds="0.00" departed="0" arrived="0" entered="0" left="0" laneChangedFrom="0" laneChangedTo="0"/>
        <edge id="-1022114283" sampledSeconds="6.39" traveltime="6.03" overlapTraveltime="6.39" density="0.06" overlapDensity="0.06" laneDensity="0.06" occupancy="0.01" waitingTime="0.00" timeLoss="0.49" speed="4.71" speedRelative="0.85" departed="0" arrived="0" entered="1" left="1" laneChangedFrom="0" laneChangedTo="0" flow="1.00"/>
        <edge id="-1022114285" sampledSeconds="0.00" departed="0" arrived="0" entered="0" left="0" laneChangedFrom="0" laneChangedTo="0"/>
        <edge id="-1022114287" sampledSeconds="13.28" traveltime="6.52" overlapTraveltime="6.83" density="0.11" overlapDensity="0.11" laneDensity="0.11" occupancy="0.02" waitingTime="0.00" timeLoss="0.95" speed="5.12" speedRelative="0.92" departed="0" arrived="2" entered="2" left="0" laneChangedFrom="0" laneChangedTo="0" flow="2.00"/>
        <edge id="-1024004267" sampledSeconds="0.00" departed="0" arrived="0" entered="0" left="0" laneChangedFrom="0" laneChangedTo="0"/>
        <edge id="-1024017994" sampledSeconds="40.07" traveltime="12.93" overlapTraveltime="13.36" density="0.16" overlapDensity="0.17" laneDensity="0.16" occupancy="0.03" waitingTime="0.00" timeLoss="2.75" speed="5.10" speedRelative="0.92" departed="0" arrived="0" entered="3" left="3" laneChangedFrom="0" laneChangedTo="0" flow="3.00"/>
        <edge id="-1024481473#0" sampledSeconds="0.00" departed="0" arrived="0" entered="0" left="0" laneChangedFrom="0" laneChangedTo="0"/>
        <edge id="-1024481473#1" sampledSeconds="0.00" departed="0" arrived="0" entered="0" left="0" laneChangedFrom="0" laneChangedTo="0"/>
        <edge id="-1026057348" sampledSeconds="0.00" departed="0" arrived="0" entered="0" left="0" laneChangedFrom="0" laneChangedTo="0"/>
        <edge id="-1026070311" sampledSeconds="0.00" departed="0" arrived="0" entered="0" left="0" laneChangedFrom="0" laneChangedTo="0"/>
        <edge id="-1026070315#0" sampledSeconds="0.00" departed="0" arrived="0" entered="0" left="0" laneChangedFrom="0" laneChangedTo="0"/>
        <edge id="-1026070315#1" sampledSeconds="0.00" departed="0" arrived="0" entered="0" left="0" laneChangedFrom="0" laneChangedTo="0"/>
        <edge id="-1026070315#2" sampledSeconds="0.00" departed="0" arrived="0" entered="0" left="0" laneChangedFrom="0" laneChangedTo="0"/>
        <edge id="-1026070315#3" sampledSeconds="0.00" departed="0" arrived="0" entered="0" left="0" laneChangedFrom="0" laneChangedTo="0"/>
        <edge id="-1026072355" sampledSeconds="92.40" traveltime="22.99" overlapTraveltime="23.80" density="0.44" overlapDensity="0.46" laneDensity="0.44" occupancy="0.07" waitingTime="43.00" timeLoss="51.57" speed="2.42" speedRelative="0.43" departed="4" arrived="0" entered="0" left="4" laneChangedFrom="0" laneChangedTo="0" flow="3.88"/>
        <edge id="-1026368157#1" sampledSeconds="0.00" departed="0" arrived="0" entered="0" left="0" laneChangedFrom="0" laneChangedTo="0"/>
        <edge id="-1026368162#0" sampledSeconds="570.88" traveltime="40.01" overlapTraveltime="40.78" density="1.88" overlapDensity="1.92" laneDensity="1.88" occupancy="0.30" waitingTime="330.00" timeLoss="365.02" speed="2.07" speedRelative="0.37" departed="0" arrived="0" entered="14" left="14" laneChangedFrom="0" laneChangedTo="0" flow="14.00"/>
        <edge id="-1026368162#1" sampledSeconds="0.00" departed="0" arrived="0" entered="0" left="0" laneChangedFrom="0" laneChangedTo="0"/>
        <edge id="-1026368162#2" sampledSeconds="0.00" departed="0" arrived="0" entered="0" left="0" laneChangedFrom="0" laneChangedTo="0"/>
        <edge id="-1026368162#3" sampledSeconds="0.00" departed="0" arrived="0" entered="0" left="0" laneChangedFrom="0" laneChangedTo="0"/>
        <edge id="-1026541486" sampledSeconds="21.51" traveltime="7.15" overlapTraveltime="7.52" density="0.16" overlapDensity="0.17" laneDensity="0.16" occupancy="0.03" waitingTime="0.00" timeLoss="1.50" speed="4.89" speedRelative="0.88" departed="3" arrived="0" entered="0" left="3" laneChangedFrom="0" laneChangedTo="0" flow="2.85"/>
        <edge id="-1026541490" sampledSeconds="0.00" departed="0" arrived="0" entered="0" left="0" laneChangedFrom="0" laneChangedTo="0"/>
        <edge id="-1026606157" sampledSeconds="261.46" traveltime="3.67" overlapTraveltime="4.82" density="2.66" overlapDensity="3.47" laneDensity="2.66" occupancy="1.29" waitingTime="13.00" timeLoss="124.73" speed="5.35" speedRelative="0.38" departed="4" arrived="0" entered="52" left="56" laneChangedFrom="0" laneChangedTo="0" flow="54.63"/>
        <edge id="-1028732094#1" sampledSeconds="46.39" traveltime="2.37" overlapTraveltime="2.75" density="0.57" overlapDensity="0.68" laneDensity="0.57" occupancy="0.21" waitingTime="0.00" timeLoss="7.97" speed="8.25" speedRelative="0.59" departed="1" arrived="0" entered="16" left="17" laneChangedFrom="0" laneChangedTo="0" flow="16.47"/>
        <edge id="-1028792575" sampledSeconds="0.00" departed="0" arrived="0" entered="0" left="0" laneChangedFrom="0" laneChangedTo="0"/>
        <edge id="-1029032488" sampledSeconds="0.00" departed="0" arrived="0" entered="0" left="0" laneChangedFrom="0" laneChangedTo="0"/>
        <edge id="-1029697147" sampledSeconds="0.00" departed="0" arrived="0" entered="0" left="0" laneChangedFrom="0" laneChangedTo="0"/>
        <edge id="-1029701446" sampledSeconds="0.00" departed="0" arrived="0" entered="0" left="0" laneChangedFrom="0" laneChangedTo="0"/>
        <edge id="-1030141989" sampledSeconds="0.00" departed="0" arrived="0" entered="0" left="0" laneChangedFrom="0" laneChangedTo="0"/>
        <edge id="-1030141990" sampledSeconds="0.00" departed="0" arrived="0" entered="0" left="0" laneChangedFrom="0" laneChangedTo="0"/>
        <edge id="-1030215624" sampledSeconds="0.00" departed="0" arrived="0" entered="0" left="0" laneChangedFrom="0" laneChangedTo="0"/>
        <edge id="-1030215625#0" sampledSeconds="0.00" departed="0" arrived="0" entered="0" left="0" laneChangedFrom="0" laneChangedTo="0"/>
        <edge id="-1030215625#1" sampledSeconds="0.00" departed="0" arrived="0" entered="0" left="0" laneChangedFrom="0" laneChangedTo="0"/>
        <edge id="-1030215626" sampledSeconds="0.00" departed="0" arrived="0" entered="0" left="0" laneChangedFrom="0" laneChangedTo="0"/>
        <edge id="-1030215629" sampledSeconds="0.00" departed="0" arrived="0" entered="0" left="0" laneChangedFrom="0" laneChangedTo="0"/>
        <edge id="-1030215631#0" sampledSeconds="30.73" traveltime="6.40" overlapTraveltime="7.68" density="1.09" overlapDensity="1.31" laneDensity="1.09" occupancy="0.19" waitingTime="16.00" timeLoss="24.99" speed="1.06" speedRelative="0.19" departed="0" arrived="0" entered="4" left="4" laneChangedFrom="0" laneChangedTo="0" flow="4.00"/>
        <edge id="-1030215631#1" sampledSeconds="0.00" departed="0" arrived="0" entered="0" left="0" laneChangedFrom="0" laneChangedTo="0"/>
        <edge id="-1030215632" sampledSeconds="0.00" departed="0" arrived="0" entered="0" left="0" laneChangedFrom="0" laneChangedTo="0"/>
        <edge id="-1030215633" sampledSeconds="0.00" departed="0" arrived="0" entered="0" left="0" laneChangedFrom="0" laneChangedTo="0"/>
        <edge id="-1030215635" sampledSeconds="0.00" departed="0" arrived="0" entered="0" left="0" laneChangedFrom="0" laneChangedTo="0"/>
        <edge id="-1030215636" sampledSeconds="0.00" departed="0" arrived="0" entered="0" left="0" laneChangedFrom="0" laneChangedTo="0"/>
        <edge id="-1030225874" sampledSeconds="0.00" departed="0" arrived="0" entered="0" left="0" laneChangedFrom="0" laneChangedTo="0"/>
        <edge id="-1031131575#0" sampledSeconds="13.90" traveltime="6.58" overlapTraveltime="6.95" density="0.11" overlapDensity="0.12" laneDensity="0.11" occupancy="0.02" waitingTime="0.00" timeLoss="1.34" speed="4.88" speedRelative="0.88" departed="0" arrived="0" entered="2" left="2" laneChangedFrom="0" laneChangedTo="0" flow="2.00"/>
        <edge id="-1031131575#1" sampledSeconds="10.24" traveltime="4.79" overlapTraveltime="5.12" density="0.11" overlapDensity="0.12" laneDensity="0.11" occupancy="0.02" waitingTime="0.00" timeLoss="0.94" speed="4.90" speedRelative="0.88" departed="0" arrived="0" entered="2" left="2" laneChangedFrom="0" laneChangedTo="0" flow="2.00"/>
        <edge id="-1031131575#2" sampledSeconds="0.00" departed="0" arrived="0" entered="0" left="0" laneChangedFrom="0" laneChangedTo="0"/>
        <edge id="-1031131575#3" sampledSeconds="0.00" departed="0" arrived="0" entered="0" left="0" laneChangedFrom="0" laneChangedTo="0"/>
        <edge id="-1031131578" sampledSeconds="0.00" departed="0" arrived="0" entered="0" left="0" laneChangedFrom="0" laneChangedTo="0"/>
        <edge id="-1031131581" sampledSeconds="0.00" departed="0" arrived="0" entered="0" left="0" laneChangedFrom="0" laneChangedTo="0"/>
        <edge id="-1031131582" sampledSeconds="0.00" departed="0" arrived="0" entered="0" left="0" laneChangedFrom="0" laneChangedTo="0"/>
        <edge id="-1031131585" sampledSeconds="9.16" traveltime="4.25" overlapTraveltime="4.58" density="0.12" overlapDensity="0.13" laneDensity="0.12" occupancy="0.02" waitingTime="0.00" timeLoss="1.07" speed="4.77" speedRelative="0.86" departed="0" arrived="0" entered="2" left="2" laneChangedFrom="0" laneChangedTo="0" flow="2.00"/>
        <edge id="-1033645484" sampledSeconds="9860.32" traveltime="59.59" overlapTraveltime="60.24" density="102.30" overlapDensity="103.63" laneDensity="102.30" occupancy="48.54" waitingTime="8924.00" timeLoss="9447.01" speed="0.52" speedRelative="0.04" departed="3" arrived="1" entered="194" left="191" laneChangedFrom="0" laneChangedTo="0" teleported="1" flow="163.34"/>
        <edge id="-1033645486#0" sampledSeconds="24852.29" traveltime="155.68" overlapTraveltime="154.84" density="104.70" overlapDensity="105.12" laneDensity="104.70" occupancy="47.00" waitingTime="22639.00" timeLoss="23942.90" speed="0.45" speedRelative="0.03" departed="1" arrived="3" entered="191" left="180" laneChangedFrom="0" laneChangedTo="0" teleported="1" flow="158.99"/>
        <edge id="-103426225#0" sampledSeconds="402.02" traveltime="4.78" overlapTraveltime="5.29" density="2.61" overlapDensity="2.92" laneDensity="2.61" occupancy="1.18" waitingTime="0.00" timeLoss="101.84" speed="8.10" speedRelative="0.58" departed="0" arrived="0" entered="75" left="75" laneChangedFrom="0" laneChangedTo="0" flow="75.00"/>
        <edge id="-103426225#1" sampledSeconds="531.33" traveltime="6.58" overlapTraveltime="7.05" density="2.52" overlapDensity="2.73" laneDensity="2.52" occupancy="1.14" waitingTime="0.00" timeLoss="120.66" speed="8.34" speedRelative="0.60" departed="4" arrived="0" entered="71" left="75" laneChangedFrom="0" laneChangedTo="0" flow="74.62"/>
        <edge id="-103426225#2" sampledSeconds="158.12" traveltime="2.01" overlapTraveltime="2.62" density="2.08" overlapDensity="2.73" laneDensity="2.08" occupancy="1.01" waitingTime="0.00" timeLoss="33.04" speed="8.19" speedRelative="0.59" departed="0" arrived="2" entered="60" left="58" laneChangedFrom="0" laneChangedTo="0" flow="60.00"/>
        <edge id="-103426225#5" sampledSeconds="444.07" traveltime="6.35" overlapTraveltime="6.95" density="2.34" overlapDensity="2.56" laneDensity="2.34" occupancy="1.18" waitingTime="0.00" timeLoss="117.38" speed="7.73" speedRelative="0.56" departed="0" arrived="6" entered="64" left="58" laneChangedFrom="0" laneChangedTo="0" flow="64.00"/>
        <edge id="-103426225#6" sampledSeconds="141.19" traveltime="1.14" overlapTraveltime="2.80" density="5.53" overlapDensity="12.26" laneDensity="5.53" occupancy="2.72" waitingTime="21.00" timeLoss="95.37" speed="3.74" speedRelative="0.27" departed="8" arrived="0" entered="56" left="64" laneChangedFrom="0" laneChangedTo="0" flow="56.00"/>
        <edge id="-1057103251" sampledSeconds="8.27" traveltime="3.82" overlapTraveltime="4.14" density="0.11" overlapDensity="0.12" laneDensity="0.11" occupancy="0.02" waitingTime="0.00" timeLoss="0.77" speed="4.90" speedRelative="0.88" departed="0" arrived="0" entered="2" left="2" laneChangedFrom="0" laneChangedTo="0" flow="2.00"/>
        <edge id="-1057888578" sampledSeconds="3053.71" traveltime="15.04" overlapTraveltime="16.00" density="17.67" overlapDensity="18.75" laneDensity="17.67" occupancy="8.97" waitingTime="1381.00" timeLoss="1762.92" speed="3.15" speedRelative="0.38" departed="4" arrived="0" entered="190" left="189" laneChangedFrom="0" laneChangedTo="0" flow="191.37"/>
        <edge id="-1059602927" sampledSeconds="0.00" departed="0" arrived="0" entered="0" left="0" laneChangedFrom="0" laneChangedTo="0"/>
        <edge id="-1062204371" sampledSeconds="8065.11" traveltime="242.54" overlapTraveltime="245.08" density="95.86" overlapDensity="96.36" laneDensity="95.86" occupancy="36.97" waitingTime="7770.00" timeLoss="7989.68" speed="0.11" speedRelative="0.01" departed="10" arrived="0" entered="35" left="41" laneChangedFrom="0" laneChangedTo="0" teleported="5" flow="33.08"/>
        <edge id="-1066053872#0" sampledSeconds="0.00" departed="0" arrived="0" entered="0" left="0" laneChangedFrom="0" laneChangedTo="0"/>
        <edge id="-1066053873#0" sampledSeconds="0.00" departed="0" arrived="0" entered="0" left="0" laneChangedFrom="0" laneChangedTo="0"/>
        <edge id="-1066053875#0" sampledSeconds="67.04" traveltime="9.24" overlapTraveltime="9.58" density="0.39" overlapDensity="0.40" laneDensity="0.39" occupancy="0.06" waitingTime="0.00" timeLoss="6.49" speed="4.98" speedRelative="0.90" departed="0" arrived="0" entered="7" left="7" laneChangedFrom="0" laneChangedTo="0" flow="7.00"/>
        <edge id="-1066890896#1" sampledSeconds="0.00" departed="0" arrived="0" entered="0" left="0" laneChangedFrom="0" laneChangedTo="0"/>
        <edge id="-1067733397" sampledSeconds="5.20" overlapTraveltime="1.46" density="0.00" overlapDensity="7.22" laneDensity="0.00" occupancy="0.14" waitingTime="0.00" timeLoss="4.02" speed="1.23" speedRelative="0.22" departed="4" arrived="0" entered="0" left="4" laneChangedFrom="0" laneChangedTo="0" flow="0.00"/>
        <edge id="-1067733401" sampledSeconds="0.00" departed="0" arrived="0" entered="0" left="0" laneChangedFrom="0" laneChangedTo="0"/>
        <edge id="-1067735751" sampledSeconds="104.19" traveltime="25.51" overlapTraveltime="26.09" density="0.26" overlapDensity="0.26" laneDensity="0.26" occupancy="0.06" waitingTime="0.00" timeLoss="26.24" speed="4.34" speedRelative="0.78" departed="0" arrived="4" entered="4" left="0" laneChangedFrom="0" laneChangedTo="0" flow="4.00"/>
        <edge id="-1068024437#0" sampledSeconds="169.63" traveltime="8.19" overlapTraveltime="8.57" density="0.63" overlapDensity="0.65" laneDensity="0.63" occupancy="0.25" waitingTime="0.00" timeLoss="16.40" speed="8.96" speedRelative="0.65" departed="0" arrived="20" entered="20" left="0" laneChangedFrom="0" laneChangedTo="0" flow="20.00"/>
        <edge id="-1068024437#1" sampledSeconds="48.36" traveltime="0.89" overlapTraveltime="1.48" density="1.83" overlapDensity="2.93" laneDensity="1.83" occupancy="0.54" waitingTime="0.00" timeLoss="14.61" speed="5.70" speedRelative="0.41" departed="0" arrived="0" entered="34" left="34" laneChangedFrom="0" laneChangedTo="0" flow="34.00"/>
        <edge id="-1068212948" sampledSeconds="0.00" departed="0" arrived="0" entered="0" left="0" laneChangedFrom="0" laneChangedTo="0"/>
        <edge id="-1068229845" sampledSeconds="35.80" traveltime="11.81" overlapTraveltime="12.09" density="0.14" overlapDensity="0.15" laneDensity="0.14" occupancy="0.02" waitingTime="0.00" timeLoss="1.84" speed="5.79" speedRelative="1.04" departed="0" arrived="3" entered="3" left="0" laneChangedFrom="0" laneChangedTo="0" flow="3.00"/>
        <edge id="-1068229847" sampledSeconds="0.00" departed="0" arrived="0" entered="0" left="0" laneChangedFrom="0" laneChangedTo="0"/>
        <edge id="-1068837568" sampledSeconds="0.00" departed="0" arrived="0" entered="0" left="0" laneChangedFrom="0" laneChangedTo="0"/>
        <edge id="-1069245844" sampledSeconds="0.00" departed="0" arrived="0" entered="0" left="0" laneChangedFrom="0" laneChangedTo="0"/>
        <edge id="-1069288948#0" sampledSeconds="0.00" departed="0" arrived="0" entered="0" left="0" laneChangedFrom="0" laneChangedTo="0"/>
        <edge id="-1069288952#0" sampledSeconds="25.97" traveltime="4.89" overlapTraveltime="5.19" density="0.30" overlapDensity="0.32" laneDensity="0.30" occupancy="0.05" waitingTime="0.00" timeLoss="4.22" speed="4.71" speedRelative="0.85" departed="0" arrived="0" entered="5" left="5" laneChangedFrom="0" laneChangedTo="0" flow="5.00"/>
        <edge id="-1069288952#1" sampledSeconds="6.66" overlapTraveltime="1.50" density="0.00" overlapDensity="9.24" laneDensity="0.00" occupancy="0.18" waitingTime="0.00" timeLoss="5.23" speed="1.20" speedRelative="0.22" departed="5" arrived="0" entered="0" left="5" laneChangedFrom="0" laneChangedTo="0" flow="0.00"/>
        <edge id="-1069288955" sampledSeconds="0.00" departed="0" arrived="0" entered="0" left="0" laneChangedFrom="0" laneChangedTo="0"/>
        <edge id="-1069423463#1" sampledSeconds="0.00" departed="0" arrived="0" entered="0" left="0" laneChangedFrom="0" laneChangedTo="0"/>
        <edge id="-1071133038" sampledSeconds="0.00" departed="0" arrived="0" entered="0" left="0" laneChangedFrom="0" laneChangedTo="0"/>
        <edge id="-1071262611" sampledSeconds="0.00" departed="0" arrived="0" entered="0" left="0" laneChangedFrom="0" laneChangedTo="0"/>
        <edge id="-1071262612#0" sampledSeconds="0.00" departed="0" arrived="0" entered="0" left="0" laneChangedFrom="0" laneChangedTo="0"/>
        <edge id="-1071262612#1" sampledSeconds="0.00" departed="0" arrived="0" entered="0" left="0" laneChangedFrom="0" laneChangedTo="0"/>
        <edge id="-1071262612#2" sampledSeconds="0.00" departed="0" arrived="0" entered="0" left="0" laneChangedFrom="0" laneChangedTo="0"/>
        <edge id="-1071262614" sampledSeconds="0.00" departed="0" arrived="0" entered="0" left="0" laneChangedFrom="0" laneChangedTo="0"/>
        <edge id="-1071262615#1" sampledSeconds="22.82" traveltime="5.73" overlapTraveltime="6.05" density="0.21" overlapDensity="0.23" laneDensity="0.21" occupancy="0.03" waitingTime="0.00" timeLoss="1.98" speed="4.92" speedRelative="0.88" departed="4" arrived="0" entered="0" left="4" laneChangedFrom="0" laneChangedTo="0" flow="3.76"/>
        <edge id="-1071851919#1" sampledSeconds="66.20" traveltime="8.64" overlapTraveltime="10.07" density="1.09" overlapDensity="1.28" laneDensity="1.09" occupancy="0.19" waitingTime="23.00" timeLoss="46.35" speed="1.59" speedRelative="0.29" departed="4" arrived="0" entered="3" left="7" laneChangedFrom="0" laneChangedTo="0" flow="6.53"/>
        <edge id="-1071851919#2" sampledSeconds="0.00" departed="0" arrived="0" entered="0" left="0" laneChangedFrom="0" laneChangedTo="0"/>
        <edge id="-1073006577" sampledSeconds="0.00" departed="0" arrived="0" entered="0" left="0" laneChangedFrom="0" laneChangedTo="0"/>
        <edge id="-1073006578" sampledSeconds="3.86" traveltime="1.30" overlapTraveltime="1.63" density="0.12" overlapDensity="0.16" laneDensity="0.12" occupancy="0.02" waitingTime="0.00" timeLoss="0.13" speed="5.01" speedRelative="0.90" departed="3" arrived="0" entered="0" left="3" laneChangedFrom="0" laneChangedTo="0" flow="2.22"/>
        <edge id="-1073006580" sampledSeconds="0.00" departed="0" arrived="0" entered="0" left="0" laneChangedFrom="0" laneChangedTo="0"/>
        <edge id="-1073006581" sampledSeconds="0.00" departed="0" arrived="0" entered="0" left="0" laneChangedFrom="0" laneChangedTo="0"/>
        <edge id="-1076778409" sampledSeconds="0.00" departed="0" arrived="0" entered="0" left="0" laneChangedFrom="0" laneChangedTo="0"/>
        <edge id="-108040331#1" sampledSeconds="0.00" departed="0" arrived="0" entered="0" left="0" laneChangedFrom="0" laneChangedTo="0"/>
        <edge id="-108045029#0" sampledSeconds="10.10" traveltime="0.02" overlapTraveltime="0.49" density="0.92" overlapDensity="14.03" laneDensity="0.92" occupancy="0.27" waitingTime="0.00" timeLoss="1.05" speed="11.12" speedRelative="0.80" departed="0" arrived="32" entered="32" left="0" laneChangedFrom="0" laneChangedTo="0" flow="31.51"/>
        <edge id="-108045029#1" sampledSeconds="544.35" traveltime="14.75" overlapTraveltime="15.16" density="1.10" overlapDensity="1.13" laneDensity="1.10" occupancy="0.48" waitingTime="0.00" timeLoss="96.19" speed="9.11" speedRelative="0.66" departed="0" arrived="4" entered="36" left="32" laneChangedFrom="0" laneChangedTo="0" flow="36.00"/>
        <edge id="-108636964#0" sampledSeconds="2.13" traveltime="0.04" overlapTraveltime="0.36" density="0.33" overlapDensity="2.96" laneDensity="0.33" occupancy="0.05" waitingTime="0.00" timeLoss="0.30" speed="5.06" speedRelative="0.91" departed="0" arrived="4" entered="6" left="2" laneChangedFrom="0" laneChangedTo="0" flow="6.00"/>
        <edge id="-108636964#1" sampledSeconds="149.41" traveltime="24.58" overlapTraveltime="24.90" density="0.30" overlapDensity="0.30" laneDensity="0.30" occupancy="0.05" waitingTime="0.00" timeLoss="7.69" speed="5.59" speedRelative="1.00" departed="0" arrived="0" entered="6" left="6" laneChangedFrom="0" laneChangedTo="0" flow="6.00"/>
        <edge id="-108686053#0" sampledSeconds="724.43" traveltime="78.25" overlapTraveltime="83.40" density="17.37" overlapDensity="17.89" laneDensity="17.37" occupancy="8.79" waitingTime="687.00" timeLoss="709.99" speed="0.19" speedRelative="0.01" departed="0" arrived="0" entered="9" left="9" laneChangedFrom="0" laneChangedTo="0" teleported="1" flow="8.99"/>
        <edge id="-108686053#1" sampledSeconds="47.90" traveltime="5.31" overlapTraveltime="5.72" density="0.18" overlapDensity="0.19" laneDensity="0.18" occupancy="0.09" waitingTime="0.00" timeLoss="2.42" speed="12.81" speedRelative="0.92" departed="9" arrived="0" entered="0" left="9" laneChangedFrom="0" laneChangedTo="0" flow="8.33"/>
        <edge id="-108686154#0" sampledSeconds="100.05" traveltime="6.75" overlapTraveltime="7.23" density="0.30" overlapDensity="0.32" laneDensity="0.30" occupancy="0.19" waitingTime="0.00" timeLoss="7.60" speed="12.90" speedRelative="0.93" departed="0" arrived="14" entered="14" left="0" laneChangedFrom="0" laneChangedTo="0" flow="14.00"/>
        <edge id="-108686154#1" sampledSeconds="57.90" traveltime="2.53" overlapTraveltime="3.09" density="0.66" overlapDensity="0.80" laneDensity="0.66" occupancy="0.33" waitingTime="0.00" timeLoss="23.10" speed="8.31" speedRelative="0.60" departed="0" arrived="5" entered="19" left="14" laneChangedFrom="0" laneChangedTo="0" flow="19.00"/>
        <edge id="-1087007031" sampledSeconds="1504.02" traveltime="3.88" overlapTraveltime="4.55" density="13.27" overlapDensity="15.62" laneDensity="6.64" occupancy="3.20" waitingTime="1.00" timeLoss="157.17" speed="6.96" speedRelative="0.84" departed="19" arrived="0" entered="315" left="332" laneChangedFrom="19" laneChangedTo="19" flow="329.50"/>
        <edge id="-108882988" sampledSeconds="114.25" traveltime="8.37" overlapTraveltime="8.92" density="0.33" overlapDensity="0.34" laneDensity="0.33" occupancy="0.22" waitingTime="0.00" timeLoss="22.67" speed="11.11" speedRelative="0.80" departed="0" arrived="13" entered="13" left="0" laneChangedFrom="0" laneChangedTo="0" flow="13.00"/>
        <edge id="-108895901#0" sampledSeconds="160.97" traveltime="12.09" overlapTraveltime="12.34" density="0.54" overlapDensity="0.55" laneDensity="0.54" occupancy="0.11" waitingTime="0.00" timeLoss="10.11" speed="6.73" speedRelative="0.48" departed="0" arrived="6" entered="13" left="7" laneChangedFrom="0" laneChangedTo="0" flow="13.00"/>
        <edge id="-108895901#1" sampledSeconds="103.30" traveltime="6.58" overlapTraveltime="6.83" density="0.66" overlapDensity="0.69" laneDensity="0.66" occupancy="0.13" waitingTime="0.00" timeLoss="8.46" speed="6.42" speedRelative="0.46" departed="0" arrived="0" entered="15" left="15" laneChangedFrom="0" laneChangedTo="0" flow="15.00"/>